M 0.0 nn 30 x 1000 y 1000 rp DSDV
M 0.0 sc dsdv-update.tcl cp trafic seed 1.0
M 0.0 prop Propagation/TwoRayGround ant Antenna/OmniAntenna
M 0.00000 0 (602.40, 1.65, 0.00), (602.40, 1.65), 0.00
M 0.00000 1 (361.81, 684.35, 0.00), (361.81, 684.35), 0.00
M 0.00000 2 (56.96, 586.35, 0.00), (56.96, 586.35), 0.00
M 0.00000 3 (785.65, 694.61, 0.00), (785.65, 694.61), 0.00
M 0.00000 4 (909.47, 491.65, 0.00), (909.47, 491.65), 0.00
M 0.00000 5 (684.35, 267.35, 0.00), (684.35, 267.35), 0.00
M 0.00000 6 (99.65, 446.87, 0.00), (99.65, 446.87), 0.00
M 0.00000 7 (363.84, 295.65, 0.00), (363.84, 295.65), 0.00
M 0.00000 8 (577.92, 393.65, 0.00), (577.92, 393.65), 0.00
M 0.00000 9 (880.35, 450.15, 0.00), (880.35, 450.15), 0.00
M 0.00000 10 (782.35, 143.08, 0.00), (782.35, 143.08), 0.00
M 0.00000 11 (488.35, 210.70, 0.00), (488.35, 210.70), 0.00
M 0.00000 12 (384.11, 684.35, 0.00), (384.11, 684.35), 0.00
M 0.00000 13 (491.65, 518.12, 0.00), (491.65, 518.12), 0.00
M 0.00000 14 (661.50, 295.65, 0.00), (661.50, 295.65), 0.00
M 0.00000 15 (89.26, 390.35, 0.00), (89.26, 390.35), 0.00
M 0.00000 16 (804.98, 488.35, 0.00), (804.98, 488.35), 0.00
M 0.00000 17 (295.65, 845.54, 0.00), (295.65, 845.54), 0.00
M 0.00000 18 (851.58, 1.65, 0.00), (851.58, 1.65), 0.00
M 0.00000 19 (880.35, 466.46, 0.00), (880.35, 466.46), 0.00
M 0.00000 20 (785.65, 162.81, 0.00), (785.65, 162.81), 0.00
M 0.00000 21 (776.73, 782.35, 0.00), (776.73, 782.35), 0.00
M 0.00000 22 (912.97, 684.35, 0.00), (912.97, 684.35), 0.00
M 0.00000 23 (589.65, 556.65, 0.00), (589.65, 556.65), 0.00
M 0.00000 24 (880.35, 745.67, 0.00), (880.35, 745.67), 0.00
M 0.00000 25 (457.01, 390.35, 0.00), (457.01, 390.35), 0.00
M 0.00000 26 (292.35, 236.80, 0.00), (292.35, 236.80), 0.00
M 0.00000 27 (96.35, 115.91, 0.00), (96.35, 115.91), 0.00
M 0.00000 0 (602.40, 1.65, 0.00), (602.40, 1.65), 45.00
M 0.00000 1 (361.81, 684.35, 0.00), (361.81, 684.35), 16.49
s 0.003091411 _0_ RTR  --- 0 message 32 [0 0 0 0] ------- [0:255 -1:255 32 0] 
s 0.003466411 _0_ MAC  --- 0 message 90 [0 ffffffff 0 800] ------- [0:255 -1:255 32 0] 
r 0.004187174 _10_ MAC  --- 0 message 32 [0 ffffffff 0 800] ------- [0:255 -1:255 32 0] 
r 0.004187205 _11_ MAC  --- 0 message 32 [0 ffffffff 0 800] ------- [0:255 -1:255 32 0] 
r 0.004187224 _20_ MAC  --- 0 message 32 [0 ffffffff 0 800] ------- [0:255 -1:255 32 0] 
r 0.004187241 _18_ MAC  --- 0 message 32 [0 ffffffff 0 800] ------- [0:255 -1:255 32 0] 
r 0.004187338 _5_ MAC  --- 0 message 32 [0 ffffffff 0 800] ------- [0:255 -1:255 32 0] 
r 0.004187410 _14_ MAC  --- 0 message 32 [0 ffffffff 0 800] ------- [0:255 -1:255 32 0] 
r 0.004187673 _7_ MAC  --- 0 message 32 [0 ffffffff 0 800] ------- [0:255 -1:255 32 0] 
r 0.004187708 _26_ MAC  --- 0 message 32 [0 ffffffff 0 800] ------- [0:255 -1:255 32 0] 
r 0.004187720 _8_ MAC  --- 0 message 32 [0 ffffffff 0 800] ------- [0:255 -1:255 32 0] 
r 0.004187736 _29_ MAC  --- 0 message 32 [0 ffffffff 0 800] ------- [0:255 -1:255 32 0] 
r 0.004212174 _10_ RTR  --- 0 message 32 [0 ffffffff 0 800] ------- [0:255 -1:255 32 0] 
r 0.004212205 _11_ RTR  --- 0 message 32 [0 ffffffff 0 800] ------- [0:255 -1:255 32 0] 
r 0.004212224 _20_ RTR  --- 0 message 32 [0 ffffffff 0 800] ------- [0:255 -1:255 32 0] 
r 0.004212241 _18_ RTR  --- 0 message 32 [0 ffffffff 0 800] ------- [0:255 -1:255 32 0] 
r 0.004212338 _5_ RTR  --- 0 message 32 [0 ffffffff 0 800] ------- [0:255 -1:255 32 0] 
r 0.004212410 _14_ RTR  --- 0 message 32 [0 ffffffff 0 800] ------- [0:255 -1:255 32 0] 
r 0.004212673 _7_ RTR  --- 0 message 32 [0 ffffffff 0 800] ------- [0:255 -1:255 32 0] 
r 0.004212708 _26_ RTR  --- 0 message 32 [0 ffffffff 0 800] ------- [0:255 -1:255 32 0] 
r 0.004212720 _8_ RTR  --- 0 message 32 [0 ffffffff 0 800] ------- [0:255 -1:255 32 0] 
r 0.004212736 _29_ RTR  --- 0 message 32 [0 ffffffff 0 800] ------- [0:255 -1:255 32 0] 
s 0.037458776 _2_ RTR  --- 1 message 32 [0 0 0 0] ------- [2:255 -1:255 32 0] 
s 0.037813776 _2_ MAC  --- 1 message 90 [0 ffffffff 2 800] ------- [2:255 -1:255 32 0] 
r 0.038534262 _6_ MAC  --- 1 message 32 [0 ffffffff 2 800] ------- [2:255 -1:255 32 0] 
r 0.038534438 _15_ MAC  --- 1 message 32 [0 ffffffff 2 800] ------- [2:255 -1:255 32 0] 
r 0.038534843 _1_ MAC  --- 1 message 32 [0 ffffffff 2 800] ------- [2:255 -1:255 32 0] 
r 0.038534914 _12_ MAC  --- 1 message 32 [0 ffffffff 2 800] ------- [2:255 -1:255 32 0] 
r 0.038534951 _17_ MAC  --- 1 message 32 [0 ffffffff 2 800] ------- [2:255 -1:255 32 0] 
r 0.038559262 _6_ RTR  --- 1 message 32 [0 ffffffff 2 800] ------- [2:255 -1:255 32 0] 
r 0.038559438 _15_ RTR  --- 1 message 32 [0 ffffffff 2 800] ------- [2:255 -1:255 32 0] 
r 0.038559843 _1_ RTR  --- 1 message 32 [0 ffffffff 2 800] ------- [2:255 -1:255 32 0] 
r 0.038559914 _12_ RTR  --- 1 message 32 [0 ffffffff 2 800] ------- [2:255 -1:255 32 0] 
r 0.038559951 _17_ RTR  --- 1 message 32 [0 ffffffff 2 800] ------- [2:255 -1:255 32 0] 
s 0.087462768 _13_ RTR  --- 2 message 32 [0 0 0 0] ------- [13:255 -1:255 32 0] 
s 0.087757768 _13_ MAC  --- 2 message 90 [0 ffffffff d 800] ------- [13:255 -1:255 32 0] 
r 0.088478119 _23_ MAC  --- 2 message 32 [0 ffffffff d 800] ------- [13:255 -1:255 32 0] 
r 0.088478209 _25_ MAC  --- 2 message 32 [0 ffffffff d 800] ------- [13:255 -1:255 32 0] 
r 0.088478273 _8_ MAC  --- 2 message 32 [0 ffffffff d 800] ------- [13:255 -1:255 32 0] 
r 0.088478428 _12_ MAC  --- 2 message 32 [0 ffffffff d 800] ------- [13:255 -1:255 32 0] 
r 0.088478471 _1_ MAC  --- 2 message 32 [0 ffffffff d 800] ------- [13:255 -1:255 32 0] 
r 0.088478623 _7_ MAC  --- 2 message 32 [0 ffffffff d 800] ------- [13:255 -1:255 32 0] 
r 0.088478701 _14_ MAC  --- 2 message 32 [0 ffffffff d 800] ------- [13:255 -1:255 32 0] 
r 0.088478793 _11_ MAC  --- 2 message 32 [0 ffffffff d 800] ------- [13:255 -1:255 32 0] 
r 0.088478817 _16_ MAC  --- 2 message 32 [0 ffffffff d 800] ------- [13:255 -1:255 32 0] 
r 0.088478822 _5_ MAC  --- 2 message 32 [0 ffffffff d 800] ------- [13:255 -1:255 32 0] 
r 0.088478911 _3_ MAC  --- 2 message 32 [0 ffffffff d 800] ------- [13:255 -1:255 32 0] 
r 0.088478917 _26_ MAC  --- 2 message 32 [0 ffffffff d 800] ------- [13:255 -1:255 32 0] 
r 0.088479040 _17_ MAC  --- 2 message 32 [0 ffffffff d 800] ------- [13:255 -1:255 32 0] 
r 0.088479064 _21_ MAC  --- 2 message 32 [0 ffffffff d 800] ------- [13:255 -1:255 32 0] 
r 0.088479075 _19_ MAC  --- 2 message 32 [0 ffffffff d 800] ------- [13:255 -1:255 32 0] 
r 0.088479083 _9_ MAC  --- 2 message 32 [0 ffffffff d 800] ------- [13:255 -1:255 32 0] 
r 0.088479096 _6_ MAC  --- 2 message 32 [0 ffffffff d 800] ------- [13:255 -1:255 32 0] 
r 0.088503119 _23_ RTR  --- 2 message 32 [0 ffffffff d 800] ------- [13:255 -1:255 32 0] 
r 0.088503209 _25_ RTR  --- 2 message 32 [0 ffffffff d 800] ------- [13:255 -1:255 32 0] 
r 0.088503273 _8_ RTR  --- 2 message 32 [0 ffffffff d 800] ------- [13:255 -1:255 32 0] 
r 0.088503428 _12_ RTR  --- 2 message 32 [0 ffffffff d 800] ------- [13:255 -1:255 32 0] 
r 0.088503471 _1_ RTR  --- 2 message 32 [0 ffffffff d 800] ------- [13:255 -1:255 32 0] 
r 0.088503623 _7_ RTR  --- 2 message 32 [0 ffffffff d 800] ------- [13:255 -1:255 32 0] 
r 0.088503701 _14_ RTR  --- 2 message 32 [0 ffffffff d 800] ------- [13:255 -1:255 32 0] 
r 0.088503793 _11_ RTR  --- 2 message 32 [0 ffffffff d 800] ------- [13:255 -1:255 32 0] 
r 0.088503817 _16_ RTR  --- 2 message 32 [0 ffffffff d 800] ------- [13:255 -1:255 32 0] 
r 0.088503822 _5_ RTR  --- 2 message 32 [0 ffffffff d 800] ------- [13:255 -1:255 32 0] 
r 0.088503911 _3_ RTR  --- 2 message 32 [0 ffffffff d 800] ------- [13:255 -1:255 32 0] 
r 0.088503917 _26_ RTR  --- 2 message 32 [0 ffffffff d 800] ------- [13:255 -1:255 32 0] 
r 0.088504040 _17_ RTR  --- 2 message 32 [0 ffffffff d 800] ------- [13:255 -1:255 32 0] 
r 0.088504064 _21_ RTR  --- 2 message 32 [0 ffffffff d 800] ------- [13:255 -1:255 32 0] 
r 0.088504075 _19_ RTR  --- 2 message 32 [0 ffffffff d 800] ------- [13:255 -1:255 32 0] 
r 0.088504083 _9_ RTR  --- 2 message 32 [0 ffffffff d 800] ------- [13:255 -1:255 32 0] 
r 0.088504096 _6_ RTR  --- 2 message 32 [0 ffffffff d 800] ------- [13:255 -1:255 32 0] 
s 0.177365656 _3_ RTR  --- 3 message 32 [0 0 0 0] ------- [3:255 -1:255 32 0] 
s 0.177560656 _3_ MAC  --- 3 message 90 [0 ffffffff 3 800] ------- [3:255 -1:255 32 0] 
r 0.178280950 _21_ MAC  --- 3 message 32 [0 ffffffff 3 800] ------- [3:255 -1:255 32 0] 
r 0.178281014 _24_ MAC  --- 3 message 32 [0 ffffffff 3 800] ------- [3:255 -1:255 32 0] 
r 0.178281082 _22_ MAC  --- 3 message 32 [0 ffffffff 3 800] ------- [3:255 -1:255 32 0] 
r 0.178281346 _16_ MAC  --- 3 message 32 [0 ffffffff 3 800] ------- [3:255 -1:255 32 0] 
r 0.178281448 _4_ MAC  --- 3 message 32 [0 ffffffff 3 800] ------- [3:255 -1:255 32 0] 
r 0.178281455 _23_ MAC  --- 3 message 32 [0 ffffffff 3 800] ------- [3:255 -1:255 32 0] 
r 0.178281479 _19_ MAC  --- 3 message 32 [0 ffffffff 3 800] ------- [3:255 -1:255 32 0] 
r 0.178281530 _9_ MAC  --- 3 message 32 [0 ffffffff 3 800] ------- [3:255 -1:255 32 0] 
r 0.178281799 _13_ MAC  --- 3 message 32 [0 ffffffff 3 800] ------- [3:255 -1:255 32 0] 
r 0.178281875 _8_ MAC  --- 3 message 32 [0 ffffffff 3 800] ------- [3:255 -1:255 32 0] 
r 0.178305950 _21_ RTR  --- 3 message 32 [0 ffffffff 3 800] ------- [3:255 -1:255 32 0] 
r 0.178306014 _24_ RTR  --- 3 message 32 [0 ffffffff 3 800] ------- [3:255 -1:255 32 0] 
r 0.178306082 _22_ RTR  --- 3 message 32 [0 ffffffff 3 800] ------- [3:255 -1:255 32 0] 
r 0.178306346 _16_ RTR  --- 3 message 32 [0 ffffffff 3 800] ------- [3:255 -1:255 32 0] 
r 0.178306448 _4_ RTR  --- 3 message 32 [0 ffffffff 3 800] ------- [3:255 -1:255 32 0] 
r 0.178306455 _23_ RTR  --- 3 message 32 [0 ffffffff 3 800] ------- [3:255 -1:255 32 0] 
r 0.178306479 _19_ RTR  --- 3 message 32 [0 ffffffff 3 800] ------- [3:255 -1:255 32 0] 
r 0.178306530 _9_ RTR  --- 3 message 32 [0 ffffffff 3 800] ------- [3:255 -1:255 32 0] 
r 0.178306799 _13_ RTR  --- 3 message 32 [0 ffffffff 3 800] ------- [3:255 -1:255 32 0] 
r 0.178306875 _8_ RTR  --- 3 message 32 [0 ffffffff 3 800] ------- [3:255 -1:255 32 0] 
s 0.191634337 _19_ RTR  --- 4 message 32 [0 0 0 0] ------- [19:255 -1:255 32 0] 
s 0.191889337 _19_ MAC  --- 4 message 90 [0 ffffffff 13 800] ------- [19:255 -1:255 32 0] 
r 0.192609391 _9_ MAC  --- 4 message 32 [0 ffffffff 13 800] ------- [19:255 -1:255 32 0] 
r 0.192609465 _4_ MAC  --- 4 message 32 [0 ffffffff 13 800] ------- [19:255 -1:255 32 0] 
r 0.192609598 _16_ MAC  --- 4 message 32 [0 ffffffff 13 800] ------- [19:255 -1:255 32 0] 
r 0.192610071 _22_ MAC  --- 4 message 32 [0 ffffffff 13 800] ------- [19:255 -1:255 32 0] 
r 0.192610160 _3_ MAC  --- 4 message 32 [0 ffffffff 13 800] ------- [19:255 -1:255 32 0] 
r 0.192610262 _14_ MAC  --- 4 message 32 [0 ffffffff 13 800] ------- [19:255 -1:255 32 0] 
r 0.192610267 _24_ MAC  --- 4 message 32 [0 ffffffff 13 800] ------- [19:255 -1:255 32 0] 
r 0.192610268 _5_ MAC  --- 4 message 32 [0 ffffffff 13 800] ------- [19:255 -1:255 32 0] 
r 0.192610351 _23_ MAC  --- 4 message 32 [0 ffffffff 13 800] ------- [19:255 -1:255 32 0] 
r 0.192610374 _8_ MAC  --- 4 message 32 [0 ffffffff 13 800] ------- [19:255 -1:255 32 0] 
r 0.192610397 _20_ MAC  --- 4 message 32 [0 ffffffff 13 800] ------- [19:255 -1:255 32 0] 
r 0.192610445 _21_ MAC  --- 4 message 32 [0 ffffffff 13 800] ------- [19:255 -1:255 32 0] 
r 0.192610463 _10_ MAC  --- 4 message 32 [0 ffffffff 13 800] ------- [19:255 -1:255 32 0] 
r 0.192610644 _13_ MAC  --- 4 message 32 [0 ffffffff 13 800] ------- [19:255 -1:255 32 0] 
r 0.192634391 _9_ RTR  --- 4 message 32 [0 ffffffff 13 800] ------- [19:255 -1:255 32 0] 
r 0.192634465 _4_ RTR  --- 4 message 32 [0 ffffffff 13 800] ------- [19:255 -1:255 32 0] 
r 0.192634598 _16_ RTR  --- 4 message 32 [0 ffffffff 13 800] ------- [19:255 -1:255 32 0] 
r 0.192635071 _22_ RTR  --- 4 message 32 [0 ffffffff 13 800] ------- [19:255 -1:255 32 0] 
r 0.192635160 _3_ RTR  --- 4 message 32 [0 ffffffff 13 800] ------- [19:255 -1:255 32 0] 
r 0.192635262 _14_ RTR  --- 4 message 32 [0 ffffffff 13 800] ------- [19:255 -1:255 32 0] 
r 0.192635267 _24_ RTR  --- 4 message 32 [0 ffffffff 13 800] ------- [19:255 -1:255 32 0] 
r 0.192635268 _5_ RTR  --- 4 message 32 [0 ffffffff 13 800] ------- [19:255 -1:255 32 0] 
r 0.192635351 _23_ RTR  --- 4 message 32 [0 ffffffff 13 800] ------- [19:255 -1:255 32 0] 
r 0.192635374 _8_ RTR  --- 4 message 32 [0 ffffffff 13 800] ------- [19:255 -1:255 32 0] 
r 0.192635397 _20_ RTR  --- 4 message 32 [0 ffffffff 13 800] ------- [19:255 -1:255 32 0] 
r 0.192635445 _21_ RTR  --- 4 message 32 [0 ffffffff 13 800] ------- [19:255 -1:255 32 0] 
r 0.192635463 _10_ RTR  --- 4 message 32 [0 ffffffff 13 800] ------- [19:255 -1:255 32 0] 
r 0.192635644 _13_ RTR  --- 4 message 32 [0 ffffffff 13 800] ------- [19:255 -1:255 32 0] 
s 0.234603229 _15_ RTR  --- 5 message 32 [0 0 0 0] ------- [15:255 -1:255 32 0] 
s 0.234898229 _15_ MAC  --- 5 message 90 [0 ffffffff f 800] ------- [15:255 -1:255 32 0] 
r 0.235618421 _6_ MAC  --- 5 message 32 [0 ffffffff f 800] ------- [15:255 -1:255 32 0] 
r 0.235618892 _2_ MAC  --- 5 message 32 [0 ffffffff f 800] ------- [15:255 -1:255 32 0] 
r 0.235619078 _26_ MAC  --- 5 message 32 [0 ffffffff f 800] ------- [15:255 -1:255 32 0] 
r 0.235619145 _27_ MAC  --- 5 message 32 [0 ffffffff f 800] ------- [15:255 -1:255 32 0] 
r 0.235619198 _7_ MAC  --- 5 message 32 [0 ffffffff f 800] ------- [15:255 -1:255 32 0] 
r 0.235619455 _25_ MAC  --- 5 message 32 [0 ffffffff f 800] ------- [15:255 -1:255 32 0] 
r 0.235643421 _6_ RTR  --- 5 message 32 [0 ffffffff f 800] ------- [15:255 -1:255 32 0] 
r 0.235643892 _2_ RTR  --- 5 message 32 [0 ffffffff f 800] ------- [15:255 -1:255 32 0] 
r 0.235644078 _26_ RTR  --- 5 message 32 [0 ffffffff f 800] ------- [15:255 -1:255 32 0] 
r 0.235644145 _27_ RTR  --- 5 message 32 [0 ffffffff f 800] ------- [15:255 -1:255 32 0] 
r 0.235644198 _7_ RTR  --- 5 message 32 [0 ffffffff f 800] ------- [15:255 -1:255 32 0] 
r 0.235644455 _25_ RTR  --- 5 message 32 [0 ffffffff f 800] ------- [15:255 -1:255 32 0] 
s 0.333839210 _12_ RTR  --- 6 message 32 [0 0 0 0] ------- [12:255 -1:255 32 0] 
s 0.333994210 _12_ MAC  --- 6 message 90 [0 ffffffff c 800] ------- [12:255 -1:255 32 0] 
r 0.334714284 _1_ MAC  --- 6 message 32 [0 ffffffff c 800] ------- [12:255 -1:255 32 0] 
r 0.334714823 _17_ MAC  --- 6 message 32 [0 ffffffff c 800] ------- [12:255 -1:255 32 0] 
r 0.334714870 _13_ MAC  --- 6 message 32 [0 ffffffff c 800] ------- [12:255 -1:255 32 0] 
r 0.334715017 _23_ MAC  --- 6 message 32 [0 ffffffff c 800] ------- [12:255 -1:255 32 0] 
r 0.334715220 _25_ MAC  --- 6 message 32 [0 ffffffff c 800] ------- [12:255 -1:255 32 0] 
r 0.334715348 _2_ MAC  --- 6 message 32 [0 ffffffff c 800] ------- [12:255 -1:255 32 0] 
r 0.334715375 _8_ MAC  --- 6 message 32 [0 ffffffff c 800] ------- [12:255 -1:255 32 0] 
r 0.334715445 _6_ MAC  --- 6 message 32 [0 ffffffff c 800] ------- [12:255 -1:255 32 0] 
r 0.334715507 _7_ MAC  --- 6 message 32 [0 ffffffff c 800] ------- [12:255 -1:255 32 0] 
r 0.334739284 _1_ RTR  --- 6 message 32 [0 ffffffff c 800] ------- [12:255 -1:255 32 0] 
r 0.334739823 _17_ RTR  --- 6 message 32 [0 ffffffff c 800] ------- [12:255 -1:255 32 0] 
r 0.334739870 _13_ RTR  --- 6 message 32 [0 ffffffff c 800] ------- [12:255 -1:255 32 0] 
r 0.334740017 _23_ RTR  --- 6 message 32 [0 ffffffff c 800] ------- [12:255 -1:255 32 0] 
r 0.334740220 _25_ RTR  --- 6 message 32 [0 ffffffff c 800] ------- [12:255 -1:255 32 0] 
r 0.334740348 _2_ RTR  --- 6 message 32 [0 ffffffff c 800] ------- [12:255 -1:255 32 0] 
r 0.334740375 _8_ RTR  --- 6 message 32 [0 ffffffff c 800] ------- [12:255 -1:255 32 0] 
r 0.334740445 _6_ RTR  --- 6 message 32 [0 ffffffff c 800] ------- [12:255 -1:255 32 0] 
r 0.334740507 _7_ RTR  --- 6 message 32 [0 ffffffff c 800] ------- [12:255 -1:255 32 0] 
s 0.351472650 _18_ RTR  --- 7 message 32 [0 0 0 0] ------- [18:255 -1:255 32 0] 
s 0.351847650 _18_ MAC  --- 7 message 90 [0 ffffffff 12 800] ------- [18:255 -1:255 32 0] 
r 0.352568145 _29_ MAC  --- 7 message 32 [0 ffffffff 12 800] ------- [18:255 -1:255 32 0] 
r 0.352568175 _10_ MAC  --- 7 message 32 [0 ffffffff 12 800] ------- [18:255 -1:255 32 0] 
r 0.352568231 _20_ MAC  --- 7 message 32 [0 ffffffff 12 800] ------- [18:255 -1:255 32 0] 
r 0.352568481 _0_ MAC  --- 7 message 32 [0 ffffffff 12 800] ------- [18:255 -1:255 32 0] 
r 0.352568697 _5_ MAC  --- 7 message 32 [0 ffffffff 12 800] ------- [18:255 -1:255 32 0] 
r 0.352568817 _14_ MAC  --- 7 message 32 [0 ffffffff 12 800] ------- [18:255 -1:255 32 0] 
r 0.352593145 _29_ RTR  --- 7 message 32 [0 ffffffff 12 800] ------- [18:255 -1:255 32 0] 
r 0.352593175 _10_ RTR  --- 7 message 32 [0 ffffffff 12 800] ------- [18:255 -1:255 32 0] 
r 0.352593231 _20_ RTR  --- 7 message 32 [0 ffffffff 12 800] ------- [18:255 -1:255 32 0] 
r 0.352593481 _0_ RTR  --- 7 message 32 [0 ffffffff 12 800] ------- [18:255 -1:255 32 0] 
r 0.352593697 _5_ RTR  --- 7 message 32 [0 ffffffff 12 800] ------- [18:255 -1:255 32 0] 
r 0.352593817 _14_ RTR  --- 7 message 32 [0 ffffffff 12 800] ------- [18:255 -1:255 32 0] 
s 0.436386259 _29_ RTR  --- 8 message 32 [0 0 0 0] ------- [29:255 -1:255 32 0] 
s 0.436701259 _29_ MAC  --- 8 message 90 [0 ffffffff 1d 800] ------- [29:255 -1:255 32 0] 
r 0.437421754 _18_ MAC  --- 8 message 32 [0 ffffffff 1d 800] ------- [29:255 -1:255 32 0] 
r 0.437422127 _10_ MAC  --- 8 message 32 [0 ffffffff 1d 800] ------- [29:255 -1:255 32 0] 
r 0.437422156 _20_ MAC  --- 8 message 32 [0 ffffffff 1d 800] ------- [29:255 -1:255 32 0] 
r 0.437422584 _0_ MAC  --- 8 message 32 [0 ffffffff 1d 800] ------- [29:255 -1:255 32 0] 
r 0.437446754 _18_ RTR  --- 8 message 32 [0 ffffffff 1d 800] ------- [29:255 -1:255 32 0] 
r 0.437447127 _10_ RTR  --- 8 message 32 [0 ffffffff 1d 800] ------- [29:255 -1:255 32 0] 
r 0.437447156 _20_ RTR  --- 8 message 32 [0 ffffffff 1d 800] ------- [29:255 -1:255 32 0] 
r 0.437447584 _0_ RTR  --- 8 message 32 [0 ffffffff 1d 800] ------- [29:255 -1:255 32 0] 
s 0.470117073 _8_ RTR  --- 9 message 32 [0 0 0 0] ------- [8:255 -1:255 32 0] 
s 0.470652073 _8_ MAC  --- 9 message 90 [0 ffffffff 8 800] ------- [8:255 -1:255 32 0] 
r 0.471372476 _25_ MAC  --- 9 message 32 [0 ffffffff 8 800] ------- [8:255 -1:255 32 0] 
r 0.471372502 _14_ MAC  --- 9 message 32 [0 ffffffff 8 800] ------- [8:255 -1:255 32 0] 
r 0.471372578 _13_ MAC  --- 9 message 32 [0 ffffffff 8 800] ------- [8:255 -1:255 32 0] 
r 0.471372618 _23_ MAC  --- 9 message 32 [0 ffffffff 8 800] ------- [8:255 -1:255 32 0] 
r 0.471372623 _5_ MAC  --- 9 message 32 [0 ffffffff 8 800] ------- [8:255 -1:255 32 0] 
r 0.471372752 _11_ MAC  --- 9 message 32 [0 ffffffff 8 800] ------- [8:255 -1:255 32 0] 
r 0.471372858 _7_ MAC  --- 9 message 32 [0 ffffffff 8 800] ------- [8:255 -1:255 32 0] 
r 0.471372893 _16_ MAC  --- 9 message 32 [0 ffffffff 8 800] ------- [8:255 -1:255 32 0] 
r 0.471373098 _9_ MAC  --- 9 message 32 [0 ffffffff 8 800] ------- [8:255 -1:255 32 0] 
r 0.471373108 _20_ MAC  --- 9 message 32 [0 ffffffff 8 800] ------- [8:255 -1:255 32 0] 
r 0.471373110 _19_ MAC  --- 9 message 32 [0 ffffffff 8 800] ------- [8:255 -1:255 32 0] 
r 0.471373151 _10_ MAC  --- 9 message 32 [0 ffffffff 8 800] ------- [8:255 -1:255 32 0] 
r 0.471373159 _26_ MAC  --- 9 message 32 [0 ffffffff 8 800] ------- [8:255 -1:255 32 0] 
r 0.471373225 _4_ MAC  --- 9 message 32 [0 ffffffff 8 800] ------- [8:255 -1:255 32 0] 
r 0.471373237 _12_ MAC  --- 9 message 32 [0 ffffffff 8 800] ------- [8:255 -1:255 32 0] 
r 0.471373280 _1_ MAC  --- 9 message 32 [0 ffffffff 8 800] ------- [8:255 -1:255 32 0] 
r 0.471373292 _3_ MAC  --- 9 message 32 [0 ffffffff 8 800] ------- [8:255 -1:255 32 0] 
r 0.471373382 _0_ MAC  --- 9 message 32 [0 ffffffff 8 800] ------- [8:255 -1:255 32 0] 
r 0.471397476 _25_ RTR  --- 9 message 32 [0 ffffffff 8 800] ------- [8:255 -1:255 32 0] 
r 0.471397502 _14_ RTR  --- 9 message 32 [0 ffffffff 8 800] ------- [8:255 -1:255 32 0] 
r 0.471397578 _13_ RTR  --- 9 message 32 [0 ffffffff 8 800] ------- [8:255 -1:255 32 0] 
r 0.471397618 _23_ RTR  --- 9 message 32 [0 ffffffff 8 800] ------- [8:255 -1:255 32 0] 
r 0.471397623 _5_ RTR  --- 9 message 32 [0 ffffffff 8 800] ------- [8:255 -1:255 32 0] 
r 0.471397752 _11_ RTR  --- 9 message 32 [0 ffffffff 8 800] ------- [8:255 -1:255 32 0] 
r 0.471397858 _7_ RTR  --- 9 message 32 [0 ffffffff 8 800] ------- [8:255 -1:255 32 0] 
r 0.471397893 _16_ RTR  --- 9 message 32 [0 ffffffff 8 800] ------- [8:255 -1:255 32 0] 
r 0.471398098 _9_ RTR  --- 9 message 32 [0 ffffffff 8 800] ------- [8:255 -1:255 32 0] 
r 0.471398108 _20_ RTR  --- 9 message 32 [0 ffffffff 8 800] ------- [8:255 -1:255 32 0] 
r 0.471398110 _19_ RTR  --- 9 message 32 [0 ffffffff 8 800] ------- [8:255 -1:255 32 0] 
r 0.471398151 _10_ RTR  --- 9 message 32 [0 ffffffff 8 800] ------- [8:255 -1:255 32 0] 
r 0.471398159 _26_ RTR  --- 9 message 32 [0 ffffffff 8 800] ------- [8:255 -1:255 32 0] 
r 0.471398225 _4_ RTR  --- 9 message 32 [0 ffffffff 8 800] ------- [8:255 -1:255 32 0] 
r 0.471398237 _12_ RTR  --- 9 message 32 [0 ffffffff 8 800] ------- [8:255 -1:255 32 0] 
r 0.471398280 _1_ RTR  --- 9 message 32 [0 ffffffff 8 800] ------- [8:255 -1:255 32 0] 
r 0.471398292 _3_ RTR  --- 9 message 32 [0 ffffffff 8 800] ------- [8:255 -1:255 32 0] 
r 0.471398382 _0_ RTR  --- 9 message 32 [0 ffffffff 8 800] ------- [8:255 -1:255 32 0] 
s 0.521504883 _22_ RTR  --- 10 message 32 [0 0 0 0] ------- [22:255 -1:255 32 0] 
s 0.521659883 _22_ MAC  --- 10 message 90 [0 ffffffff 16 800] ------- [22:255 -1:255 32 0] 
r 0.522380115 _24_ MAC  --- 10 message 32 [0 ffffffff 16 800] ------- [22:255 -1:255 32 0] 
r 0.522380309 _3_ MAC  --- 10 message 32 [0 ffffffff 16 800] ------- [22:255 -1:255 32 0] 
r 0.522380443 _21_ MAC  --- 10 message 32 [0 ffffffff 16 800] ------- [22:255 -1:255 32 0] 
r 0.522380526 _4_ MAC  --- 10 message 32 [0 ffffffff 16 800] ------- [22:255 -1:255 32 0] 
r 0.522380618 _19_ MAC  --- 10 message 32 [0 ffffffff 16 800] ------- [22:255 -1:255 32 0] 
r 0.522380629 _16_ MAC  --- 10 message 32 [0 ffffffff 16 800] ------- [22:255 -1:255 32 0] 
r 0.522380671 _9_ MAC  --- 10 message 32 [0 ffffffff 16 800] ------- [22:255 -1:255 32 0] 
r 0.522381042 _23_ MAC  --- 10 message 32 [0 ffffffff 16 800] ------- [22:255 -1:255 32 0] 
r 0.522405115 _24_ RTR  --- 10 message 32 [0 ffffffff 16 800] ------- [22:255 -1:255 32 0] 
r 0.522405309 _3_ RTR  --- 10 message 32 [0 ffffffff 16 800] ------- [22:255 -1:255 32 0] 
r 0.522405443 _21_ RTR  --- 10 message 32 [0 ffffffff 16 800] ------- [22:255 -1:255 32 0] 
r 0.522405526 _4_ RTR  --- 10 message 32 [0 ffffffff 16 800] ------- [22:255 -1:255 32 0] 
r 0.522405618 _19_ RTR  --- 10 message 32 [0 ffffffff 16 800] ------- [22:255 -1:255 32 0] 
r 0.522405629 _16_ RTR  --- 10 message 32 [0 ffffffff 16 800] ------- [22:255 -1:255 32 0] 
r 0.522405671 _9_ RTR  --- 10 message 32 [0 ffffffff 16 800] ------- [22:255 -1:255 32 0] 
r 0.522406042 _23_ RTR  --- 10 message 32 [0 ffffffff 16 800] ------- [22:255 -1:255 32 0] 
s 0.556838879 _28_ AGT  --- 11 cbr 512 [0 0 0 0] ------- [28:0 29:0 32 0] [0] 0 0
r 0.556838879 _28_ RTR  --- 11 cbr 512 [0 0 0 0] ------- [28:0 29:0 32 0] [0] 0 0
s 0.627186592 _10_ RTR  --- 12 message 32 [0 0 0 0] ------- [10:255 -1:255 32 0] 
s 0.627321592 _10_ MAC  --- 12 message 90 [0 ffffffff a 800] ------- [10:255 -1:255 32 0] 
r 0.628041659 _20_ MAC  --- 12 message 32 [0 ffffffff a 800] ------- [10:255 -1:255 32 0] 
r 0.628042117 _18_ MAC  --- 12 message 32 [0 ffffffff a 800] ------- [10:255 -1:255 32 0] 
r 0.628042120 _5_ MAC  --- 12 message 32 [0 ffffffff a 800] ------- [10:255 -1:255 32 0] 
r 0.628042241 _14_ MAC  --- 12 message 32 [0 ffffffff a 800] ------- [10:255 -1:255 32 0] 
r 0.628042355 _0_ MAC  --- 12 message 32 [0 ffffffff a 800] ------- [10:255 -1:255 32 0] 
r 0.628042460 _29_ MAC  --- 12 message 32 [0 ffffffff a 800] ------- [10:255 -1:255 32 0] 
r 0.628042598 _11_ MAC  --- 12 message 32 [0 ffffffff a 800] ------- [10:255 -1:255 32 0] 
r 0.628042667 _9_ MAC  --- 12 message 32 [0 ffffffff a 800] ------- [10:255 -1:255 32 0] 
r 0.628042670 _8_ MAC  --- 12 message 32 [0 ffffffff a 800] ------- [10:255 -1:255 32 0] 
r 0.628042718 _19_ MAC  --- 12 message 32 [0 ffffffff a 800] ------- [10:255 -1:255 32 0] 
r 0.628042745 _16_ MAC  --- 12 message 32 [0 ffffffff a 800] ------- [10:255 -1:255 32 0] 
r 0.628042829 _4_ MAC  --- 12 message 32 [0 ffffffff a 800] ------- [10:255 -1:255 32 0] 
r 0.628066659 _20_ RTR  --- 12 message 32 [0 ffffffff a 800] ------- [10:255 -1:255 32 0] 
r 0.628067117 _18_ RTR  --- 12 message 32 [0 ffffffff a 800] ------- [10:255 -1:255 32 0] 
r 0.628067120 _5_ RTR  --- 12 message 32 [0 ffffffff a 800] ------- [10:255 -1:255 32 0] 
r 0.628067241 _14_ RTR  --- 12 message 32 [0 ffffffff a 800] ------- [10:255 -1:255 32 0] 
r 0.628067355 _0_ RTR  --- 12 message 32 [0 ffffffff a 800] ------- [10:255 -1:255 32 0] 
r 0.628067460 _29_ RTR  --- 12 message 32 [0 ffffffff a 800] ------- [10:255 -1:255 32 0] 
r 0.628067598 _11_ RTR  --- 12 message 32 [0 ffffffff a 800] ------- [10:255 -1:255 32 0] 
r 0.628067667 _9_ RTR  --- 12 message 32 [0 ffffffff a 800] ------- [10:255 -1:255 32 0] 
r 0.628067670 _8_ RTR  --- 12 message 32 [0 ffffffff a 800] ------- [10:255 -1:255 32 0] 
r 0.628067718 _19_ RTR  --- 12 message 32 [0 ffffffff a 800] ------- [10:255 -1:255 32 0] 
r 0.628067745 _16_ RTR  --- 12 message 32 [0 ffffffff a 800] ------- [10:255 -1:255 32 0] 
r 0.628067829 _4_ RTR  --- 12 message 32 [0 ffffffff a 800] ------- [10:255 -1:255 32 0] 
s 0.634670006 _6_ RTR  --- 13 message 32 [0 0 0 0] ------- [6:255 -1:255 32 0] 
s 0.634865006 _6_ MAC  --- 13 message 90 [0 ffffffff 6 800] ------- [6:255 -1:255 32 0] 
r 0.635585198 _15_ MAC  --- 13 message 32 [0 ffffffff 6 800] ------- [6:255 -1:255 32 0] 
r 0.635585493 _2_ MAC  --- 13 message 32 [0 ffffffff 6 800] ------- [6:255 -1:255 32 0] 
r 0.635585957 _26_ MAC  --- 13 message 32 [0 ffffffff 6 800] ------- [6:255 -1:255 32 0] 
r 0.635586021 _7_ MAC  --- 13 message 32 [0 ffffffff 6 800] ------- [6:255 -1:255 32 0] 
r 0.635586110 _27_ MAC  --- 13 message 32 [0 ffffffff 6 800] ------- [6:255 -1:255 32 0] 
r 0.635586185 _1_ MAC  --- 13 message 32 [0 ffffffff 6 800] ------- [6:255 -1:255 32 0] 
r 0.635586212 _25_ MAC  --- 13 message 32 [0 ffffffff 6 800] ------- [6:255 -1:255 32 0] 
r 0.635586242 _12_ MAC  --- 13 message 32 [0 ffffffff 6 800] ------- [6:255 -1:255 32 0] 
r 0.635586334 _13_ MAC  --- 13 message 32 [0 ffffffff 6 800] ------- [6:255 -1:255 32 0] 
r 0.635610198 _15_ RTR  --- 13 message 32 [0 ffffffff 6 800] ------- [6:255 -1:255 32 0] 
r 0.635610493 _2_ RTR  --- 13 message 32 [0 ffffffff 6 800] ------- [6:255 -1:255 32 0] 
r 0.635610957 _26_ RTR  --- 13 message 32 [0 ffffffff 6 800] ------- [6:255 -1:255 32 0] 
r 0.635611021 _7_ RTR  --- 13 message 32 [0 ffffffff 6 800] ------- [6:255 -1:255 32 0] 
r 0.635611110 _27_ RTR  --- 13 message 32 [0 ffffffff 6 800] ------- [6:255 -1:255 32 0] 
r 0.635611185 _1_ RTR  --- 13 message 32 [0 ffffffff 6 800] ------- [6:255 -1:255 32 0] 
r 0.635611212 _25_ RTR  --- 13 message 32 [0 ffffffff 6 800] ------- [6:255 -1:255 32 0] 
r 0.635611242 _12_ RTR  --- 13 message 32 [0 ffffffff 6 800] ------- [6:255 -1:255 32 0] 
r 0.635611334 _13_ RTR  --- 13 message 32 [0 ffffffff 6 800] ------- [6:255 -1:255 32 0] 
s 0.705637875 _21_ RTR  --- 14 message 32 [0 0 0 0] ------- [21:255 -1:255 32 0] 
s 0.706012875 _21_ MAC  --- 14 message 90 [0 ffffffff 15 800] ------- [21:255 -1:255 32 0] 
r 0.706733168 _3_ MAC  --- 14 message 32 [0 ffffffff 15 800] ------- [21:255 -1:255 32 0] 
r 0.706733241 _24_ MAC  --- 14 message 32 [0 ffffffff 15 800] ------- [21:255 -1:255 32 0] 
r 0.706733434 _22_ MAC  --- 14 message 32 [0 ffffffff 15 800] ------- [21:255 -1:255 32 0] 
r 0.706733852 _23_ MAC  --- 14 message 32 [0 ffffffff 15 800] ------- [21:255 -1:255 32 0] 
r 0.706733859 _16_ MAC  --- 14 message 32 [0 ffffffff 15 800] ------- [21:255 -1:255 32 0] 
r 0.706733940 _4_ MAC  --- 14 message 32 [0 ffffffff 15 800] ------- [21:255 -1:255 32 0] 
r 0.706733983 _19_ MAC  --- 14 message 32 [0 ffffffff 15 800] ------- [21:255 -1:255 32 0] 
r 0.706734034 _9_ MAC  --- 14 message 32 [0 ffffffff 15 800] ------- [21:255 -1:255 32 0] 
r 0.706734170 _13_ MAC  --- 14 message 32 [0 ffffffff 15 800] ------- [21:255 -1:255 32 0] 
r 0.706758168 _3_ RTR  --- 14 message 32 [0 ffffffff 15 800] ------- [21:255 -1:255 32 0] 
r 0.706758241 _24_ RTR  --- 14 message 32 [0 ffffffff 15 800] ------- [21:255 -1:255 32 0] 
r 0.706758434 _22_ RTR  --- 14 message 32 [0 ffffffff 15 800] ------- [21:255 -1:255 32 0] 
r 0.706758852 _23_ RTR  --- 14 message 32 [0 ffffffff 15 800] ------- [21:255 -1:255 32 0] 
r 0.706758859 _16_ RTR  --- 14 message 32 [0 ffffffff 15 800] ------- [21:255 -1:255 32 0] 
r 0.706758940 _4_ RTR  --- 14 message 32 [0 ffffffff 15 800] ------- [21:255 -1:255 32 0] 
r 0.706758983 _19_ RTR  --- 14 message 32 [0 ffffffff 15 800] ------- [21:255 -1:255 32 0] 
r 0.706759034 _9_ RTR  --- 14 message 32 [0 ffffffff 15 800] ------- [21:255 -1:255 32 0] 
r 0.706759170 _13_ RTR  --- 14 message 32 [0 ffffffff 15 800] ------- [21:255 -1:255 32 0] 
s 0.821435127 _23_ RTR  --- 15 message 32 [0 0 0 0] ------- [23:255 -1:255 32 0] 
s 0.821550127 _23_ MAC  --- 15 message 90 [0 ffffffff 17 800] ------- [23:255 -1:255 32 0] 
r 0.822270478 _13_ MAC  --- 15 message 32 [0 ffffffff 17 800] ------- [23:255 -1:255 32 0] 
r 0.822270672 _8_ MAC  --- 15 message 32 [0 ffffffff 17 800] ------- [23:255 -1:255 32 0] 
r 0.822270836 _25_ MAC  --- 15 message 32 [0 ffffffff 17 800] ------- [23:255 -1:255 32 0] 
r 0.822270880 _16_ MAC  --- 15 message 32 [0 ffffffff 17 800] ------- [23:255 -1:255 32 0] 
r 0.822270926 _3_ MAC  --- 15 message 32 [0 ffffffff 17 800] ------- [23:255 -1:255 32 0] 
r 0.822270934 _12_ MAC  --- 15 message 32 [0 ffffffff 17 800] ------- [23:255 -1:255 32 0] 
r 0.822270998 _1_ MAC  --- 15 message 32 [0 ffffffff 17 800] ------- [23:255 -1:255 32 0] 
r 0.822271030 _14_ MAC  --- 15 message 32 [0 ffffffff 17 800] ------- [23:255 -1:255 32 0] 