M 0.0 nn 30 x 1000 y 1000 rp DSDV
M 0.0 sc dsdv-update.tcl cp trafic seed 1.0
M 0.0 prop Propagation/TwoRayGround ant Antenna/OmniAntenna
M 0.00000 0 (1.65, 83.44, 0.00), (1.65, 83.44), 0.00
M 0.00000 1 (978.35, 422.19, 0.00), (978.35, 422.19), 0.00
M 0.00000 2 (390.35, 629.04, 0.00), (390.35, 629.04), 0.00
M 0.00000 3 (785.65, 106.61, 0.00), (785.65, 106.61), 0.00
M 0.00000 4 (785.65, 560.53, 0.00), (785.65, 560.53), 0.00
M 0.00000 5 (267.35, 295.65, 0.00), (267.35, 295.65), 0.00
M 0.00000 6 (782.35, 925.13, 0.00), (782.35, 925.13), 0.00
M 0.00000 7 (880.35, 167.84, 0.00), (880.35, 167.84), 0.00
M 0.00000 8 (687.65, 304.08, 0.00), (687.65, 304.08), 0.00
M 0.00000 9 (390.35, 450.15, 0.00), (390.35, 450.15), 0.00
M 0.00000 10 (829.08, 99.65, 0.00), (829.08, 99.65), 0.00
M 0.00000 11 (700.70, 393.65, 0.00), (700.70, 393.65), 0.00
M 0.00000 12 (295.65, 776.11, 0.00), (295.65, 776.11), 0.00
M 0.00000 13 (69.88, 99.65, 0.00), (69.88, 99.65), 0.00
M 0.00000 14 (295.65, 906.50, 0.00), (295.65, 906.50), 0.00
M 0.00000 15 (89.26, 390.35, 0.00), (89.26, 390.35), 0.00
M 0.00000 16 (880.35, 175.02, 0.00), (880.35, 175.02), 0.00
M 0.00000 17 (257.54, 586.35, 0.00), (257.54, 586.35), 0.00
M 0.00000 18 (557.58, 785.65, 0.00), (557.58, 785.65), 0.00
M 0.00000 19 (858.46, 393.65, 0.00), (858.46, 393.65), 0.00
M 0.00000 20 (229.19, 589.65, 0.00), (229.19, 589.65), 0.00
M 0.00000 21 (791.27, 295.65, 0.00), (791.27, 295.65), 0.00
M 0.00000 22 (165.03, 981.65, 0.00), (165.03, 981.65), 0.00
M 0.00000 23 (687.65, 139.13, 0.00), (687.65, 139.13), 0.00
M 0.00000 24 (586.35, 629.12, 0.00), (586.35, 629.12), 0.00
M 0.00000 25 (491.65, 421.29, 0.00), (491.65, 421.29), 0.00
M 0.00000 26 (549.67, 393.65, 0.00), (549.67, 393.65), 0.00
M 0.00000 27 (194.35, 409.91, 0.00), (194.35, 409.91), 0.00
M 0.00000 0 (1.65, 83.44, 0.00), (1.65, 83.44), 25.00
M 0.00000 1 (978.35, 422.19, 0.00), (978.35, 422.19), 25.00
s 0.003091411 _0_ RTR  --- 0 message 32 [0 0 0 0] ------- [0:255 -1:255 32 0] 
s 0.003466411 _0_ MAC  --- 0 message 90 [0 ffffffff 0 800] ------- [0:255 -1:255 32 0] 
r 0.004186644 _13_ MAC  --- 0 message 32 [0 ffffffff 0 800] ------- [0:255 -1:255 32 0] 
r 0.004187475 _15_ MAC  --- 0 message 32 [0 ffffffff 0 800] ------- [0:255 -1:255 32 0] 
r 0.004187544 _5_ MAC  --- 0 message 32 [0 ffffffff 0 800] ------- [0:255 -1:255 32 0] 
r 0.004187674 _27_ MAC  --- 0 message 32 [0 ffffffff 0 800] ------- [0:255 -1:255 32 0] 
r 0.004211644 _13_ RTR  --- 0 message 32 [0 ffffffff 0 800] ------- [0:255 -1:255 32 0] 
r 0.004212475 _15_ RTR  --- 0 message 32 [0 ffffffff 0 800] ------- [0:255 -1:255 32 0] 
r 0.004212544 _5_ RTR  --- 0 message 32 [0 ffffffff 0 800] ------- [0:255 -1:255 32 0] 
r 0.004212674 _27_ RTR  --- 0 message 32 [0 ffffffff 0 800] ------- [0:255 -1:255 32 0] 
s 0.037458776 _2_ RTR  --- 1 message 32 [0 0 0 0] ------- [2:255 -1:255 32 0] 
s 0.037813776 _2_ MAC  --- 1 message 90 [0 ffffffff 2 800] ------- [2:255 -1:255 32 0] 
r 0.038534241 _17_ MAC  --- 1 message 32 [0 ffffffff 2 800] ------- [2:255 -1:255 32 0] 
r 0.038534329 _20_ MAC  --- 1 message 32 [0 ffffffff 2 800] ------- [2:255 -1:255 32 0] 
r 0.038534359 _12_ MAC  --- 1 message 32 [0 ffffffff 2 800] ------- [2:255 -1:255 32 0] 
r 0.038534372 _9_ MAC  --- 1 message 32 [0 ffffffff 2 800] ------- [2:255 -1:255 32 0] 
r 0.038534429 _24_ MAC  --- 1 message 32 [0 ffffffff 2 800] ------- [2:255 -1:255 32 0] 
r 0.038534540 _18_ MAC  --- 1 message 32 [0 ffffffff 2 800] ------- [2:255 -1:255 32 0] 
r 0.038534546 _25_ MAC  --- 1 message 32 [0 ffffffff 2 800] ------- [2:255 -1:255 32 0] 
r 0.038534723 _26_ MAC  --- 1 message 32 [0 ffffffff 2 800] ------- [2:255 -1:255 32 0] 
r 0.038534753 _14_ MAC  --- 1 message 32 [0 ffffffff 2 800] ------- [2:255 -1:255 32 0] 
r 0.038534756 _27_ MAC  --- 1 message 32 [0 ffffffff 2 800] ------- [2:255 -1:255 32 0] 
r 0.038534961 _5_ MAC  --- 1 message 32 [0 ffffffff 2 800] ------- [2:255 -1:255 32 0] 
r 0.038535057 _15_ MAC  --- 1 message 32 [0 ffffffff 2 800] ------- [2:255 -1:255 32 0] 
r 0.038535074 _11_ MAC  --- 1 message 32 [0 ffffffff 2 800] ------- [2:255 -1:255 32 0] 
r 0.038559241 _17_ RTR  --- 1 message 32 [0 ffffffff 2 800] ------- [2:255 -1:255 32 0] 
r 0.038559329 _20_ RTR  --- 1 message 32 [0 ffffffff 2 800] ------- [2:255 -1:255 32 0] 
r 0.038559359 _12_ RTR  --- 1 message 32 [0 ffffffff 2 800] ------- [2:255 -1:255 32 0] 
r 0.038559372 _9_ RTR  --- 1 message 32 [0 ffffffff 2 800] ------- [2:255 -1:255 32 0] 
r 0.038559429 _24_ RTR  --- 1 message 32 [0 ffffffff 2 800] ------- [2:255 -1:255 32 0] 
r 0.038559540 _18_ RTR  --- 1 message 32 [0 ffffffff 2 800] ------- [2:255 -1:255 32 0] 
r 0.038559546 _25_ RTR  --- 1 message 32 [0 ffffffff 2 800] ------- [2:255 -1:255 32 0] 
r 0.038559723 _26_ RTR  --- 1 message 32 [0 ffffffff 2 800] ------- [2:255 -1:255 32 0] 
r 0.038559753 _14_ RTR  --- 1 message 32 [0 ffffffff 2 800] ------- [2:255 -1:255 32 0] 
r 0.038559756 _27_ RTR  --- 1 message 32 [0 ffffffff 2 800] ------- [2:255 -1:255 32 0] 
r 0.038559961 _5_ RTR  --- 1 message 32 [0 ffffffff 2 800] ------- [2:255 -1:255 32 0] 
r 0.038560057 _15_ RTR  --- 1 message 32 [0 ffffffff 2 800] ------- [2:255 -1:255 32 0] 
r 0.038560074 _11_ RTR  --- 1 message 32 [0 ffffffff 2 800] ------- [2:255 -1:255 32 0] 
s 0.087462768 _13_ RTR  --- 2 message 32 [0 0 0 0] ------- [13:255 -1:255 32 0] 
s 0.087757768 _13_ MAC  --- 2 message 90 [0 ffffffff d 800] ------- [13:255 -1:255 32 0] 
r 0.088478002 _0_ MAC  --- 2 message 32 [0 ffffffff d 800] ------- [13:255 -1:255 32 0] 
r 0.088478695 _5_ MAC  --- 2 message 32 [0 ffffffff d 800] ------- [13:255 -1:255 32 0] 
r 0.088478739 _15_ MAC  --- 2 message 32 [0 ffffffff d 800] ------- [13:255 -1:255 32 0] 
r 0.088478882 _27_ MAC  --- 2 message 32 [0 ffffffff d 800] ------- [13:255 -1:255 32 0] 
r 0.088503002 _0_ RTR  --- 2 message 32 [0 ffffffff d 800] ------- [13:255 -1:255 32 0] 
r 0.088503695 _5_ RTR  --- 2 message 32 [0 ffffffff d 800] ------- [13:255 -1:255 32 0] 
r 0.088503739 _15_ RTR  --- 2 message 32 [0 ffffffff d 800] ------- [13:255 -1:255 32 0] 
r 0.088503882 _27_ RTR  --- 2 message 32 [0 ffffffff d 800] ------- [13:255 -1:255 32 0] 
s 0.177365656 _3_ RTR  --- 3 message 32 [0 0 0 0] ------- [3:255 -1:255 32 0] 
s 0.177560656 _3_ MAC  --- 3 message 90 [0 ffffffff 3 800] ------- [3:255 -1:255 32 0] 
r 0.178280802 _10_ MAC  --- 3 message 32 [0 ffffffff 3 800] ------- [3:255 -1:255 32 0] 
r 0.178281000 _23_ MAC  --- 3 message 32 [0 ffffffff 3 800] ------- [3:255 -1:255 32 0] 
r 0.178281032 _7_ MAC  --- 3 message 32 [0 ffffffff 3 800] ------- [3:255 -1:255 32 0] 
r 0.178281045 _16_ MAC  --- 3 message 32 [0 ffffffff 3 800] ------- [3:255 -1:255 32 0] 
r 0.178281286 _21_ MAC  --- 3 message 32 [0 ffffffff 3 800] ------- [3:255 -1:255 32 0] 
r 0.178281391 _8_ MAC  --- 3 message 32 [0 ffffffff 3 800] ------- [3:255 -1:255 32 0] 
r 0.178281454 _29_ MAC  --- 3 message 32 [0 ffffffff 3 800] ------- [3:255 -1:255 32 0] 
r 0.178281643 _19_ MAC  --- 3 message 32 [0 ffffffff 3 800] ------- [3:255 -1:255 32 0] 
r 0.178281654 _11_ MAC  --- 3 message 32 [0 ffffffff 3 800] ------- [3:255 -1:255 32 0] 
r 0.178281888 _1_ MAC  --- 3 message 32 [0 ffffffff 3 800] ------- [3:255 -1:255 32 0] 
r 0.178281894 _26_ MAC  --- 3 message 32 [0 ffffffff 3 800] ------- [3:255 -1:255 32 0] 
r 0.178305802 _10_ RTR  --- 3 message 32 [0 ffffffff 3 800] ------- [3:255 -1:255 32 0] 
r 0.178306000 _23_ RTR  --- 3 message 32 [0 ffffffff 3 800] ------- [3:255 -1:255 32 0] 
r 0.178306032 _7_ RTR  --- 3 message 32 [0 ffffffff 3 800] ------- [3:255 -1:255 32 0] 
r 0.178306045 _16_ RTR  --- 3 message 32 [0 ffffffff 3 800] ------- [3:255 -1:255 32 0] 
r 0.178306286 _21_ RTR  --- 3 message 32 [0 ffffffff 3 800] ------- [3:255 -1:255 32 0] 
r 0.178306391 _8_ RTR  --- 3 message 32 [0 ffffffff 3 800] ------- [3:255 -1:255 32 0] 
r 0.178306454 _29_ RTR  --- 3 message 32 [0 ffffffff 3 800] ------- [3:255 -1:255 32 0] 
r 0.178306643 _19_ RTR  --- 3 message 32 [0 ffffffff 3 800] ------- [3:255 -1:255 32 0] 
r 0.178306654 _11_ RTR  --- 3 message 32 [0 ffffffff 3 800] ------- [3:255 -1:255 32 0] 
r 0.178306888 _1_ RTR  --- 3 message 32 [0 ffffffff 3 800] ------- [3:255 -1:255 32 0] 
r 0.178306894 _26_ RTR  --- 3 message 32 [0 ffffffff 3 800] ------- [3:255 -1:255 32 0] 
s 0.191634337 _19_ RTR  --- 4 message 32 [0 0 0 0] ------- [19:255 -1:255 32 0] 
s 0.191889337 _19_ MAC  --- 4 message 90 [0 ffffffff 13 800] ------- [19:255 -1:255 32 0] 
r 0.192609733 _21_ MAC  --- 4 message 32 [0 ffffffff 13 800] ------- [19:255 -1:255 32 0] 
r 0.192609747 _1_ MAC  --- 4 message 32 [0 ffffffff 13 800] ------- [19:255 -1:255 32 0] 
r 0.192609863 _11_ MAC  --- 4 message 32 [0 ffffffff 13 800] ------- [19:255 -1:255 32 0] 
r 0.192609944 _4_ MAC  --- 4 message 32 [0 ffffffff 13 800] ------- [19:255 -1:255 32 0] 
r 0.192609980 _8_ MAC  --- 4 message 32 [0 ffffffff 13 800] ------- [19:255 -1:255 32 0] 
r 0.192610069 _16_ MAC  --- 4 message 32 [0 ffffffff 13 800] ------- [19:255 -1:255 32 0] 
r 0.192610093 _7_ MAC  --- 4 message 32 [0 ffffffff 13 800] ------- [19:255 -1:255 32 0] 
r 0.192610322 _10_ MAC  --- 4 message 32 [0 ffffffff 13 800] ------- [19:255 -1:255 32 0] 
r 0.192610324 _3_ MAC  --- 4 message 32 [0 ffffffff 13 800] ------- [19:255 -1:255 32 0] 
r 0.192610358 _23_ MAC  --- 4 message 32 [0 ffffffff 13 800] ------- [19:255 -1:255 32 0] 
r 0.192610366 _26_ MAC  --- 4 message 32 [0 ffffffff 13 800] ------- [19:255 -1:255 32 0] 
r 0.192610536 _24_ MAC  --- 4 message 32 [0 ffffffff 13 800] ------- [19:255 -1:255 32 0] 
r 0.192610563 _25_ MAC  --- 4 message 32 [0 ffffffff 13 800] ------- [19:255 -1:255 32 0] 
r 0.192634733 _21_ RTR  --- 4 message 32 [0 ffffffff 13 800] ------- [19:255 -1:255 32 0] 
r 0.192634747 _1_ RTR  --- 4 message 32 [0 ffffffff 13 800] ------- [19:255 -1:255 32 0] 
r 0.192634863 _11_ RTR  --- 4 message 32 [0 ffffffff 13 800] ------- [19:255 -1:255 32 0] 
r 0.192634944 _4_ RTR  --- 4 message 32 [0 ffffffff 13 800] ------- [19:255 -1:255 32 0] 
r 0.192634980 _8_ RTR  --- 4 message 32 [0 ffffffff 13 800] ------- [19:255 -1:255 32 0] 
r 0.192635069 _16_ RTR  --- 4 message 32 [0 ffffffff 13 800] ------- [19:255 -1:255 32 0] 
r 0.192635093 _7_ RTR  --- 4 message 32 [0 ffffffff 13 800] ------- [19:255 -1:255 32 0] 
r 0.192635322 _10_ RTR  --- 4 message 32 [0 ffffffff 13 800] ------- [19:255 -1:255 32 0] 
r 0.192635324 _3_ RTR  --- 4 message 32 [0 ffffffff 13 800] ------- [19:255 -1:255 32 0] 
r 0.192635358 _23_ RTR  --- 4 message 32 [0 ffffffff 13 800] ------- [19:255 -1:255 32 0] 
r 0.192635366 _26_ RTR  --- 4 message 32 [0 ffffffff 13 800] ------- [19:255 -1:255 32 0] 
r 0.192635536 _24_ RTR  --- 4 message 32 [0 ffffffff 13 800] ------- [19:255 -1:255 32 0] 
r 0.192635563 _25_ RTR  --- 4 message 32 [0 ffffffff 13 800] ------- [19:255 -1:255 32 0] 
s 0.234603229 _15_ RTR  --- 5 message 32 [0 0 0 0] ------- [15:255 -1:255 32 0] 
s 0.234898229 _15_ MAC  --- 5 message 90 [0 ffffffff f 800] ------- [15:255 -1:255 32 0] 
r 0.235618586 _27_ MAC  --- 5 message 32 [0 ffffffff f 800] ------- [15:255 -1:255 32 0] 
r 0.235618902 _5_ MAC  --- 5 message 32 [0 ffffffff f 800] ------- [15:255 -1:255 32 0] 
r 0.235619041 _20_ MAC  --- 5 message 32 [0 ffffffff f 800] ------- [15:255 -1:255 32 0] 
r 0.235619091 _17_ MAC  --- 5 message 32 [0 ffffffff f 800] ------- [15:255 -1:255 32 0] 
r 0.235619201 _13_ MAC  --- 5 message 32 [0 ffffffff f 800] ------- [15:255 -1:255 32 0] 
r 0.235619253 _9_ MAC  --- 5 message 32 [0 ffffffff f 800] ------- [15:255 -1:255 32 0] 
r 0.235619293 _0_ MAC  --- 5 message 32 [0 ffffffff f 800] ------- [15:255 -1:255 32 0] 
r 0.235619510 _2_ MAC  --- 5 message 32 [0 ffffffff f 800] ------- [15:255 -1:255 32 0] 
r 0.235643586 _27_ RTR  --- 5 message 32 [0 ffffffff f 800] ------- [15:255 -1:255 32 0] 
r 0.235643902 _5_ RTR  --- 5 message 32 [0 ffffffff f 800] ------- [15:255 -1:255 32 0] 
r 0.235644041 _20_ RTR  --- 5 message 32 [0 ffffffff f 800] ------- [15:255 -1:255 32 0] 
r 0.235644091 _17_ RTR  --- 5 message 32 [0 ffffffff f 800] ------- [15:255 -1:255 32 0] 
r 0.235644201 _13_ RTR  --- 5 message 32 [0 ffffffff f 800] ------- [15:255 -1:255 32 0] 
r 0.235644253 _9_ RTR  --- 5 message 32 [0 ffffffff f 800] ------- [15:255 -1:255 32 0] 
r 0.235644293 _0_ RTR  --- 5 message 32 [0 ffffffff f 800] ------- [15:255 -1:255 32 0] 
r 0.235644510 _2_ RTR  --- 5 message 32 [0 ffffffff f 800] ------- [15:255 -1:255 32 0] 
s 0.333839210 _12_ RTR  --- 6 message 32 [0 0 0 0] ------- [12:255 -1:255 32 0] 
s 0.333994210 _12_ MAC  --- 6 message 90 [0 ffffffff c 800] ------- [12:255 -1:255 32 0] 
r 0.334714645 _14_ MAC  --- 6 message 32 [0 ffffffff c 800] ------- [12:255 -1:255 32 0] 
r 0.334714793 _2_ MAC  --- 6 message 32 [0 ffffffff c 800] ------- [12:255 -1:255 32 0] 
r 0.334714855 _17_ MAC  --- 6 message 32 [0 ffffffff c 800] ------- [12:255 -1:255 32 0] 
r 0.334714870 _20_ MAC  --- 6 message 32 [0 ffffffff c 800] ------- [12:255 -1:255 32 0] 
r 0.334715022 _22_ MAC  --- 6 message 32 [0 ffffffff c 800] ------- [12:255 -1:255 32 0] 
r 0.334715084 _18_ MAC  --- 6 message 32 [0 ffffffff c 800] ------- [12:255 -1:255 32 0] 
r 0.334715296 _24_ MAC  --- 6 message 32 [0 ffffffff c 800] ------- [12:255 -1:255 32 0] 
r 0.334715341 _9_ MAC  --- 6 message 32 [0 ffffffff c 800] ------- [12:255 -1:255 32 0] 
r 0.334715446 _28_ MAC  --- 6 message 32 [0 ffffffff c 800] ------- [12:255 -1:255 32 0] 
r 0.334715476 _27_ MAC  --- 6 message 32 [0 ffffffff c 800] ------- [12:255 -1:255 32 0] 
r 0.334739645 _14_ RTR  --- 6 message 32 [0 ffffffff c 800] ------- [12:255 -1:255 32 0] 
r 0.334739793 _2_ RTR  --- 6 message 32 [0 ffffffff c 800] ------- [12:255 -1:255 32 0] 
r 0.334739855 _17_ RTR  --- 6 message 32 [0 ffffffff c 800] ------- [12:255 -1:255 32 0] 
r 0.334739870 _20_ RTR  --- 6 message 32 [0 ffffffff c 800] ------- [12:255 -1:255 32 0] 
r 0.334740022 _22_ RTR  --- 6 message 32 [0 ffffffff c 800] ------- [12:255 -1:255 32 0] 
r 0.334740084 _18_ RTR  --- 6 message 32 [0 ffffffff c 800] ------- [12:255 -1:255 32 0] 
r 0.334740296 _24_ RTR  --- 6 message 32 [0 ffffffff c 800] ------- [12:255 -1:255 32 0] 
r 0.334740341 _9_ RTR  --- 6 message 32 [0 ffffffff c 800] ------- [12:255 -1:255 32 0] 
r 0.334740446 _28_ RTR  --- 6 message 32 [0 ffffffff c 800] ------- [12:255 -1:255 32 0] 
r 0.334740476 _27_ RTR  --- 6 message 32 [0 ffffffff c 800] ------- [12:255 -1:255 32 0] 
s 0.351472650 _18_ RTR  --- 7 message 32 [0 0 0 0] ------- [18:255 -1:255 32 0] 
s 0.351847650 _18_ MAC  --- 7 message 90 [0 ffffffff 12 800] ------- [18:255 -1:255 32 0] 
r 0.352568181 _24_ MAC  --- 7 message 32 [0 ffffffff 12 800] ------- [18:255 -1:255 32 0] 
r 0.352568414 _2_ MAC  --- 7 message 32 [0 ffffffff 12 800] ------- [18:255 -1:255 32 0] 
r 0.352568524 _12_ MAC  --- 7 message 32 [0 ffffffff 12 800] ------- [18:255 -1:255 32 0] 
r 0.352568532 _6_ MAC  --- 7 message 32 [0 ffffffff 12 800] ------- [18:255 -1:255 32 0] 
r 0.352568612 _14_ MAC  --- 7 message 32 [0 ffffffff 12 800] ------- [18:255 -1:255 32 0] 
r 0.352568718 _4_ MAC  --- 7 message 32 [0 ffffffff 12 800] ------- [18:255 -1:255 32 0] 
r 0.352568851 _17_ MAC  --- 7 message 32 [0 ffffffff 12 800] ------- [18:255 -1:255 32 0] 
r 0.352568884 _25_ MAC  --- 7 message 32 [0 ffffffff 12 800] ------- [18:255 -1:255 32 0] 
r 0.352568900 _9_ MAC  --- 7 message 32 [0 ffffffff 12 800] ------- [18:255 -1:255 32 0] 
r 0.352568925 _20_ MAC  --- 7 message 32 [0 ffffffff 12 800] ------- [18:255 -1:255 32 0] 
r 0.352568957 _26_ MAC  --- 7 message 32 [0 ffffffff 12 800] ------- [18:255 -1:255 32 0] 
r 0.352593181 _24_ RTR  --- 7 message 32 [0 ffffffff 12 800] ------- [18:255 -1:255 32 0] 
r 0.352593414 _2_ RTR  --- 7 message 32 [0 ffffffff 12 800] ------- [18:255 -1:255 32 0] 
r 0.352593524 _12_ RTR  --- 7 message 32 [0 ffffffff 12 800] ------- [18:255 -1:255 32 0] 
r 0.352593532 _6_ RTR  --- 7 message 32 [0 ffffffff 12 800] ------- [18:255 -1:255 32 0] 
r 0.352593612 _14_ RTR  --- 7 message 32 [0 ffffffff 12 800] ------- [18:255 -1:255 32 0] 
r 0.352593718 _4_ RTR  --- 7 message 32 [0 ffffffff 12 800] ------- [18:255 -1:255 32 0] 
r 0.352593851 _17_ RTR  --- 7 message 32 [0 ffffffff 12 800] ------- [18:255 -1:255 32 0] 
r 0.352593884 _25_ RTR  --- 7 message 32 [0 ffffffff 12 800] ------- [18:255 -1:255 32 0] 
r 0.352593900 _9_ RTR  --- 7 message 32 [0 ffffffff 12 800] ------- [18:255 -1:255 32 0] 
r 0.352593925 _20_ RTR  --- 7 message 32 [0 ffffffff 12 800] ------- [18:255 -1:255 32 0] 
r 0.352593957 _26_ RTR  --- 7 message 32 [0 ffffffff 12 800] ------- [18:255 -1:255 32 0] 
s 0.436386259 _29_ RTR  --- 8 message 32 [0 0 0 0] ------- [29:255 -1:255 32 0] 
s 0.436701259 _29_ MAC  --- 8 message 90 [0 ffffffff 1d 800] ------- [29:255 -1:255 32 0] 
r 0.437421919 _10_ MAC  --- 8 message 32 [0 ffffffff 1d 800] ------- [29:255 -1:255 32 0] 
r 0.437421946 _7_ MAC  --- 8 message 32 [0 ffffffff 1d 800] ------- [29:255 -1:255 32 0] 
r 0.437421966 _16_ MAC  --- 8 message 32 [0 ffffffff 1d 800] ------- [29:255 -1:255 32 0] 
r 0.437422057 _3_ MAC  --- 8 message 32 [0 ffffffff 1d 800] ------- [29:255 -1:255 32 0] 
r 0.437422399 _23_ MAC  --- 8 message 32 [0 ffffffff 1d 800] ------- [29:255 -1:255 32 0] 
r 0.437422465 _21_ MAC  --- 8 message 32 [0 ffffffff 1d 800] ------- [29:255 -1:255 32 0] 
r 0.437446919 _10_ RTR  --- 8 message 32 [0 ffffffff 1d 800] ------- [29:255 -1:255 32 0] 
r 0.437446946 _7_ RTR  --- 8 message 32 [0 ffffffff 1d 800] ------- [29:255 -1:255 32 0] 
r 0.437446966 _16_ RTR  --- 8 message 32 [0 ffffffff 1d 800] ------- [29:255 -1:255 32 0] 
r 0.437447057 _3_ RTR  --- 8 message 32 [0 ffffffff 1d 800] ------- [29:255 -1:255 32 0] 
r 0.437447399 _23_ RTR  --- 8 message 32 [0 ffffffff 1d 800] ------- [29:255 -1:255 32 0] 
r 0.437447465 _21_ RTR  --- 8 message 32 [0 ffffffff 1d 800] ------- [29:255 -1:255 32 0] 
s 0.470117073 _8_ RTR  --- 9 message 32 [0 0 0 0] ------- [8:255 -1:255 32 0] 
s 0.470652073 _8_ MAC  --- 9 message 90 [0 ffffffff 8 800] ------- [8:255 -1:255 32 0] 
r 0.471372375 _11_ MAC  --- 9 message 32 [0 ffffffff 8 800] ------- [8:255 -1:255 32 0] 
r 0.471372419 _21_ MAC  --- 9 message 32 [0 ffffffff 8 800] ------- [8:255 -1:255 32 0] 
r 0.471372621 _26_ MAC  --- 9 message 32 [0 ffffffff 8 800] ------- [8:255 -1:255 32 0] 
r 0.471372623 _23_ MAC  --- 9 message 32 [0 ffffffff 8 800] ------- [8:255 -1:255 32 0] 
r 0.471372716 _19_ MAC  --- 9 message 32 [0 ffffffff 8 800] ------- [8:255 -1:255 32 0] 
r 0.471372808 _3_ MAC  --- 9 message 32 [0 ffffffff 8 800] ------- [8:255 -1:255 32 0] 
r 0.471372834 _25_ MAC  --- 9 message 32 [0 ffffffff 8 800] ------- [8:255 -1:255 32 0] 
r 0.471372846 _16_ MAC  --- 9 message 32 [0 ffffffff 8 800] ------- [8:255 -1:255 32 0] 
r 0.471372860 _7_ MAC  --- 9 message 32 [0 ffffffff 8 800] ------- [8:255 -1:255 32 0] 
r 0.471372901 _10_ MAC  --- 9 message 32 [0 ffffffff 8 800] ------- [8:255 -1:255 32 0] 
r 0.471372988 _4_ MAC  --- 9 message 32 [0 ffffffff 8 800] ------- [8:255 -1:255 32 0] 
r 0.471373119 _1_ MAC  --- 9 message 32 [0 ffffffff 8 800] ------- [8:255 -1:255 32 0] 
r 0.471373177 _9_ MAC  --- 9 message 32 [0 ffffffff 8 800] ------- [8:255 -1:255 32 0] 
r 0.471373208 _24_ MAC  --- 9 message 32 [0 ffffffff 8 800] ------- [8:255 -1:255 32 0] 
r 0.471397375 _11_ RTR  --- 9 message 32 [0 ffffffff 8 800] ------- [8:255 -1:255 32 0] 
r 0.471397419 _21_ RTR  --- 9 message 32 [0 ffffffff 8 800] ------- [8:255 -1:255 32 0] 
r 0.471397621 _26_ RTR  --- 9 message 32 [0 ffffffff 8 800] ------- [8:255 -1:255 32 0] 
r 0.471397623 _23_ RTR  --- 9 message 32 [0 ffffffff 8 800] ------- [8:255 -1:255 32 0] 
r 0.471397716 _19_ RTR  --- 9 message 32 [0 ffffffff 8 800] ------- [8:255 -1:255 32 0] 
r 0.471397808 _3_ RTR  --- 9 message 32 [0 ffffffff 8 800] ------- [8:255 -1:255 32 0] 
r 0.471397834 _25_ RTR  --- 9 message 32 [0 ffffffff 8 800] ------- [8:255 -1:255 32 0] 
r 0.471397846 _16_ RTR  --- 9 message 32 [0 ffffffff 8 800] ------- [8:255 -1:255 32 0] 
r 0.471397860 _7_ RTR  --- 9 message 32 [0 ffffffff 8 800] ------- [8:255 -1:255 32 0] 
r 0.471397901 _10_ RTR  --- 9 message 32 [0 ffffffff 8 800] ------- [8:255 -1:255 32 0] 
r 0.471397988 _4_ RTR  --- 9 message 32 [0 ffffffff 8 800] ------- [8:255 -1:255 32 0] 
r 0.471398119 _1_ RTR  --- 9 message 32 [0 ffffffff 8 800] ------- [8:255 -1:255 32 0] 
r 0.471398177 _9_ RTR  --- 9 message 32 [0 ffffffff 8 800] ------- [8:255 -1:255 32 0] 
r 0.471398208 _24_ RTR  --- 9 message 32 [0 ffffffff 8 800] ------- [8:255 -1:255 32 0] 
s 0.521504883 _22_ RTR  --- 10 message 32 [0 0 0 0] ------- [22:255 -1:255 32 0] 
s 0.521659883 _22_ MAC  --- 10 message 90 [0 ffffffff 16 800] ------- [22:255 -1:255 32 0] 
r 0.522380385 _14_ MAC  --- 10 message 32 [0 ffffffff 16 800] ------- [22:255 -1:255 32 0] 
r 0.522380437 _28_ MAC  --- 10 message 32 [0 ffffffff 16 800] ------- [22:255 -1:255 32 0] 
r 0.522380695 _12_ MAC  --- 10 message 32 [0 ffffffff 16 800] ------- [22:255 -1:255 32 0] 
r 0.522381207 _20_ MAC  --- 10 message 32 [0 ffffffff 16 800] ------- [22:255 -1:255 32 0] 
r 0.522405385 _14_ RTR  --- 10 message 32 [0 ffffffff 16 800] ------- [22:255 -1:255 32 0] 
r 0.522405437 _28_ RTR  --- 10 message 32 [0 ffffffff 16 800] ------- [22:255 -1:255 32 0] 
r 0.522405695 _12_ RTR  --- 10 message 32 [0 ffffffff 16 800] ------- [22:255 -1:255 32 0] 
r 0.522406207 _20_ RTR  --- 10 message 32 [0 ffffffff 16 800] ------- [22:255 -1:255 32 0] 
s 0.556838879 _28_ AGT  --- 11 cbr 512 [0 0 0 0] ------- [28:0 29:0 32 0] [0] 0 0
r 0.556838879 _28_ RTR  --- 11 cbr 512 [0 0 0 0] ------- [28:0 29:0 32 0] [0] 0 0
s 0.627186592 _10_ RTR  --- 12 message 32 [0 0 0 0] ------- [10:255 -1:255 32 0] 
s 0.627321592 _10_ MAC  --- 12 message 90 [0 ffffffff a 800] ------- [10:255 -1:255 32 0] 
r 0.628041739 _3_ MAC  --- 12 message 32 [0 ffffffff a 800] ------- [10:255 -1:255 32 0] 
r 0.628041876 _7_ MAC  --- 12 message 32 [0 ffffffff a 800] ------- [10:255 -1:255 32 0] 
r 0.628041896 _16_ MAC  --- 12 message 32 [0 ffffffff a 800] ------- [10:255 -1:255 32 0] 
r 0.628042082 _23_ MAC  --- 12 message 32 [0 ffffffff a 800] ------- [10:255 -1:255 32 0] 
r 0.628042252 _29_ MAC  --- 12 message 32 [0 ffffffff a 800] ------- [10:255 -1:255 32 0] 
r 0.628042257 _21_ MAC  --- 12 message 32 [0 ffffffff a 800] ------- [10:255 -1:255 32 0] 
r 0.628042421 _8_ MAC  --- 12 message 32 [0 ffffffff a 800] ------- [10:255 -1:255 32 0] 
r 0.628042577 _19_ MAC  --- 12 message 32 [0 ffffffff a 800] ------- [10:255 -1:255 32 0] 
r 0.628042661 _11_ MAC  --- 12 message 32 [0 ffffffff a 800] ------- [10:255 -1:255 32 0] 
r 0.628042777 _1_ MAC  --- 12 message 32 [0 ffffffff a 800] ------- [10:255 -1:255 32 0] 
r 0.628066739 _3_ RTR  --- 12 message 32 [0 ffffffff a 800] ------- [10:255 -1:255 32 0] 
r 0.628066876 _7_ RTR  --- 12 message 32 [0 ffffffff a 800] ------- [10:255 -1:255 32 0] 
r 0.628066896 _16_ RTR  --- 12 message 32 [0 ffffffff a 800] ------- [10:255 -1:255 32 0] 
r 0.628067082 _23_ RTR  --- 12 message 32 [0 ffffffff a 800] ------- [10:255 -1:255 32 0] 
r 0.628067252 _29_ RTR  --- 12 message 32 [0 ffffffff a 800] ------- [10:255 -1:255 32 0] 
r 0.628067257 _21_ RTR  --- 12 message 32 [0 ffffffff a 800] ------- [10:255 -1:255 32 0] 
r 0.628067421 _8_ RTR  --- 12 message 32 [0 ffffffff a 800] ------- [10:255 -1:255 32 0] 
r 0.628067577 _19_ RTR  --- 12 message 32 [0 ffffffff a 800] ------- [10:255 -1:255 32 0] 
r 0.628067661 _11_ RTR  --- 12 message 32 [0 ffffffff a 800] ------- [10:255 -1:255 32 0] 
r 0.628067777 _1_ RTR  --- 12 message 32 [0 ffffffff a 800] ------- [10:255 -1:255 32 0] 
s 0.634670006 _6_ RTR  --- 13 message 32 [0 0 0 0] ------- [6:255 -1:255 32 0] 
s 0.634865006 _6_ MAC  --- 13 message 90 [0 ffffffff 6 800] ------- [6:255 -1:255 32 0] 
r 0.635585888 _18_ MAC  --- 13 message 32 [0 ffffffff 6 800] ------- [6:255 -1:255 32 0] 
r 0.635586190 _24_ MAC  --- 13 message 32 [0 ffffffff 6 800] ------- [6:255 -1:255 32 0] 
r 0.635586222 _4_ MAC  --- 13 message 32 [0 ffffffff 6 800] ------- [6:255 -1:255 32 0] 
r 0.635610888 _18_ RTR  --- 13 message 32 [0 ffffffff 6 800] ------- [6:255 -1:255 32 0] 
r 0.635611190 _24_ RTR  --- 13 message 32 [0 ffffffff 6 800] ------- [6:255 -1:255 32 0] 
r 0.635611222 _4_ RTR  --- 13 message 32 [0 ffffffff 6 800] ------- [6:255 -1:255 32 0] 
s 0.705637875 _21_ RTR  --- 14 message 32 [0 0 0 0] ------- [21:255 -1:255 32 0] 
s 0.706012875 _21_ MAC  --- 14 message 90 [0 ffffffff 15 800] ------- [21:255 -1:255 32 0] 
r 0.706733221 _8_ MAC  --- 14 message 32 [0 ffffffff 15 800] ------- [21:255 -1:255 32 0] 
r 0.706733271 _19_ MAC  --- 14 message 32 [0 ffffffff 15 800] ------- [21:255 -1:255 32 0] 
r 0.706733319 _11_ MAC  --- 14 message 32 [0 ffffffff 15 800] ------- [21:255 -1:255 32 0] 
r 0.706733374 _16_ MAC  --- 14 message 32 [0 ffffffff 15 800] ------- [21:255 -1:255 32 0] 
r 0.706733394 _7_ MAC  --- 14 message 32 [0 ffffffff 15 800] ------- [21:255 -1:255 32 0] 
r 0.706733500 _23_ MAC  --- 14 message 32 [0 ffffffff 15 800] ------- [21:255 -1:255 32 0] 
r 0.706733505 _3_ MAC  --- 14 message 32 [0 ffffffff 15 800] ------- [21:255 -1:255 32 0] 
r 0.706733540 _10_ MAC  --- 14 message 32 [0 ffffffff 15 800] ------- [21:255 -1:255 32 0] 
r 0.706733627 _1_ MAC  --- 14 message 32 [0 ffffffff 15 800] ------- [21:255 -1:255 32 0] 
r 0.706733744 _26_ MAC  --- 14 message 32 [0 ffffffff 15 800] ------- [21:255 -1:255 32 0] 
r 0.706733758 _4_ MAC  --- 14 message 32 [0 ffffffff 15 800] ------- [21:255 -1:255 32 0] 
r 0.706733958 _25_ MAC  --- 14 message 32 [0 ffffffff 15 800] ------- [21:255 -1:255 32 0] 
r 0.706734081 _29_ MAC  --- 14 message 32 [0 ffffffff 15 800] ------- [21:255 -1:255 32 0] 
r 0.706734179 _24_ MAC  --- 14 message 32 [0 ffffffff 15 800] ------- [21:255 -1:255 32 0] 
r 0.706758221 _8_ RTR  --- 14 message 32 [0 ffffffff 15 800] ------- [21:255 -1:255 32 0] 
r 0.706758271 _19_ RTR  --- 14 message 32 [0 ffffffff 15 800] ------- [21:255 -1:255 32 0] 
r 0.706758319 _11_ RTR  --- 14 message 32 [0 ffffffff 15 800] ------- [21:255 -1:255 32 0] 
r 0.706758374 _16_ RTR  --- 14 message 32 [0 ffffffff 15 800] ------- [21:255 -1:255 32 0] 
r 0.706758394 _7_ RTR  --- 14 message 32 [0 ffffffff 15 800] ------- [21:255 -1:255 32 0] 
r 0.706758500 _23_ RTR  --- 14 message 32 [0 ffffffff 15 800] ------- [21:255 -1:255 32 0] 
r 0.706758505 _3_ RTR  --- 14 message 32 [0 ffffffff 15 800] ------- [21:255 -1:255 32 0] 
r 0.706758540 _10_ RTR  --- 14 message 32 [0 ffffffff 15 800] ------- [21:255 -1:255 32 0] 
r 0.706758627 _1_ RTR  --- 14 message 32 [0 ffffffff 15 800] ------- [21:255 -1:255 32 0] 
r 0.706758744 _26_ RTR  --- 14 message 32 [0 ffffffff 15 800] ------- [21:255 -1:255 32 0] 
r 0.706758758 _4_ RTR  --- 14 message 32 [0 ffffffff 15 800] ------- [21:255 -1:255 32 0] 
r 0.706758958 _25_ RTR  --- 14 message 32 [0 ffffffff 15 800] ------- [21:255 -1:255 32 0] 
r 0.706759081 _29_ RTR  --- 14 message 32 [0 ffffffff 15 800] ------- [21:255 -1:255 32 0] 
r 0.706759179 _24_ RTR  --- 14 message 32 [0 ffffffff 15 800] ------- [21:255 -1:255 32 0] 
s 0.821435127 _23_ RTR  --- 15 message 32 [0 0 0 0] ------- [23:255 -1:255 32 0] 
s 0.821550127 _23_ MAC  --- 15 message 90 [0 ffffffff 17 800] ------- [23:255 -1:255 32 0] 
r 0.822270471 _3_ MAC  --- 15 message 32 [0 ffffffff 17 800] ------- [23:255 -1:255 32 0] 
r 0.822270617 _10_ MAC  --- 15 message 32 [0 ffffffff 17 800] ------- [23:255 -1:255 32 0] 
r 0.822270677 _8_ MAC  --- 15 message 32 [0 ffffffff 17 800] ------- [23:255 -1:255 32 0] 
r 0.822270753 _21_ MAC  --- 15 message 32 [0 ffffffff 17 800] ------- [23:255 -1:255 32 0] 
r 0.822270777 _7_ MAC  --- 15 message 32 [0 ffffffff 17 800] ------- [23:255 -1:255 32 0] 
r 0.822270781 _16_ MAC  --- 15 message 32 [0 ffffffff 17 800] ------- [23:255 -1:255 32 0] 
r 0.822270977 _11_ MAC  --- 15 message 32 [0 ffffffff 17 800] ------- [23:255 -1:255 32 0] 
r 0.822271092 _26_ MAC  --- 15 message 32 [0 ffffffff 17 800] ------- [23:255 -1:255 32 0] 
r 0.822271149 _19_ MAC  --- 15 message 32 [0 ffffffff 17 800] ------- [23:255 -1:255 32 0] 
r 0.822271267 _29_ MAC  --- 15 message 32 [0 ffffffff 17 800] ------- [23:255 -1:255 32 0] 
r 0.822271272 _25_ MAC  --- 15 message 32 [0 ffffffff 17 800] ------- [23:255 -1:255 32 0] 
r 0.822295471 _3_ RTR  --- 15 message 32 [0 ffffffff 17 800] ------- [23:255 -1:255 32 0] 
r 0.822295617 _10_ RTR  --- 15 message 32 [0 ffffffff 17 800] ------- [23:255 -1:255 32 0] 
r 0.822295677 _8_ RTR  --- 15 message 32 [0 ffffffff 17 800] ------- [23:255 -1:255 32 0] 
r 0.822295753 _21_ RTR  --- 15 message 32 [0 ffffffff 17 800] ------- [23:255 -1:255 32 0] 
r 0.822295777 _7_ RTR  --- 15 message 32 [0 ffffffff 17 800] ------- [23:255 -1:255 32 0] 
r 0.822295781 _16_ RTR  --- 15 message 32 [0 ffffffff 17 800] ------- [23:255 -1:255 32 0] 
r 0.822295977 _11_ RTR  --- 15 message 32 [0 ffffffff 17 800] ------- [23:255 -1:255 32 0] 
r 0.822296092 _26_ RTR  --- 15 message 32 [0 ffffffff 17 800] ------- [23:255 -1:255 32 0] 
r 0.822296149 _19_ RTR  --- 15 message 32 [0 ffffffff 17 800] ------- [23:255 -1:255 32 0] 
r 0.822296267 _29_ RTR  --- 15 message 32 [0 ffffffff 17 800] ------- [23:255 -1:255 32 0] 
r 0.822296272 _25_ RTR  --- 15 message 32 [0 ffffffff 17 800] ------- [23:255 -1:255 32 0] 
s 0.848147771 _17_ RTR  --- 16 message 32 [0 0 0 0] ------- [17:255 -1:255 32 0] 
s 0.848382771 _17_ MAC  --- 16 message 90 [0 ffffffff 11 800] ------- [17:255 -1:255 32 0] 
r 0.849102867 _20_ MAC  --- 16 message 32 [0 ffffffff 11 800] ------- [17:255 -1:255 32 0] 
r 0.849103237 _2_ MAC  --- 16 message 32 [0 ffffffff 11 800] ------- [17:255 -1:255 32 0] 
r 0.849103396 _27_ MAC  --- 16 message 32 [0 ffffffff 11 800] ------- [17:255 -1:255 32 0] 
r 0.849103406 _9_ MAC  --- 16 message 32 [0 ffffffff 11 800] ------- [17:255 -1:255 32 0] 
r 0.849103417 _12_ MAC  --- 16 message 32 [0 ffffffff 11 800] ------- [17:255 -1:255 32 0] 
r 0.849103633 _15_ MAC  --- 16 message 32 [0 ffffffff 11 800] ------- [17:255 -1:255 32 0] 
r 0.849103726 _25_ MAC  --- 16 message 32 [0 ffffffff 11 800] ------- [17:255 -1:255 32 0] 