M 0.00000 0 (601.65, 232.66, 0.00), (601.65, 232.66), 8.54
s 0.003091411 _0_ RTR  --- 0 message 32 [0 0 0 0] ------- [0:255 -1:255 32 0] 
r 0.004211438 _2_ RTR  --- 0 message 32 [0 ffffffff 0 800] ------- [0:255 -1:255 32 0] 
r 0.004211662 _26_ RTR  --- 0 message 32 [0 ffffffff 0 800] ------- [0:255 -1:255 32 0] 
r 0.004211681 _28_ RTR  --- 0 message 32 [0 ffffffff 0 800] ------- [0:255 -1:255 32 0] 
r 0.004211736 _5_ RTR  --- 0 message 32 [0 ffffffff 0 800] ------- [0:255 -1:255 32 0] 
r 0.004211812 _6_ RTR  --- 0 message 32 [0 ffffffff 0 800] ------- [0:255 -1:255 32 0] 
r 0.004211820 _23_ RTR  --- 0 message 32 [0 ffffffff 0 800] ------- [0:255 -1:255 32 0] 
r 0.004211822 _15_ RTR  --- 0 message 32 [0 ffffffff 0 800] ------- [0:255 -1:255 32 0] 
r 0.004211928 _8_ RTR  --- 0 message 32 [0 ffffffff 0 800] ------- [0:255 -1:255 32 0] 
r 0.004211938 _24_ RTR  --- 0 message 32 [0 ffffffff 0 800] ------- [0:255 -1:255 32 0] 
r 0.004212070 _20_ RTR  --- 0 message 32 [0 ffffffff 0 800] ------- [0:255 -1:255 32 0] 
r 0.004212119 _19_ RTR  --- 0 message 32 [0 ffffffff 0 800] ------- [0:255 -1:255 32 0] 
r 0.004212155 _7_ RTR  --- 0 message 32 [0 ffffffff 0 800] ------- [0:255 -1:255 32 0] 
r 0.004212192 _16_ RTR  --- 0 message 32 [0 ffffffff 0 800] ------- [0:255 -1:255 32 0] 
r 0.004212208 _9_ RTR  --- 0 message 32 [0 ffffffff 0 800] ------- [0:255 -1:255 32 0] 
s 0.037458776 _2_ RTR  --- 1 message 32 [0 0 0 0] ------- [2:255 -1:255 32 0] 
r 0.038558803 _0_ RTR  --- 1 message 32 [0 ffffffff 2 800] ------- [2:255 -1:255 32 0] 
r 0.038559053 _26_ RTR  --- 1 message 32 [0 ffffffff 2 800] ------- [2:255 -1:255 32 0] 
r 0.038559071 _28_ RTR  --- 1 message 32 [0 ffffffff 2 800] ------- [2:255 -1:255 32 0] 
r 0.038559127 _5_ RTR  --- 1 message 32 [0 ffffffff 2 800] ------- [2:255 -1:255 32 0] 
r 0.038559185 _6_ RTR  --- 1 message 32 [0 ffffffff 2 800] ------- [2:255 -1:255 32 0] 
r 0.038559203 _23_ RTR  --- 1 message 32 [0 ffffffff 2 800] ------- [2:255 -1:255 32 0] 
r 0.038559213 _15_ RTR  --- 1 message 32 [0 ffffffff 2 800] ------- [2:255 -1:255 32 0] 
r 0.038559280 _8_ RTR  --- 1 message 32 [0 ffffffff 2 800] ------- [2:255 -1:255 32 0] 
r 0.038559289 _24_ RTR  --- 1 message 32 [0 ffffffff 2 800] ------- [2:255 -1:255 32 0] 
r 0.038559460 _20_ RTR  --- 1 message 32 [0 ffffffff 2 800] ------- [2:255 -1:255 32 0] 
r 0.038559507 _19_ RTR  --- 1 message 32 [0 ffffffff 2 800] ------- [2:255 -1:255 32 0] 
r 0.038559542 _7_ RTR  --- 1 message 32 [0 ffffffff 2 800] ------- [2:255 -1:255 32 0] 
r 0.038559560 _16_ RTR  --- 1 message 32 [0 ffffffff 2 800] ------- [2:255 -1:255 32 0] 
r 0.038559601 _9_ RTR  --- 1 message 32 [0 ffffffff 2 800] ------- [2:255 -1:255 32 0] 
s 0.087462768 _13_ RTR  --- 2 message 32 [0 0 0 0] ------- [13:255 -1:255 32 0] 
r 0.088503081 _16_ RTR  --- 2 message 32 [0 ffffffff d 800] ------- [13:255 -1:255 32 0] 
r 0.088503181 _18_ RTR  --- 2 message 32 [0 ffffffff d 800] ------- [13:255 -1:255 32 0] 
r 0.088503206 _22_ RTR  --- 2 message 32 [0 ffffffff d 800] ------- [13:255 -1:255 32 0] 
r 0.088503237 _10_ RTR  --- 2 message 32 [0 ffffffff d 800] ------- [13:255 -1:255 32 0] 
r 0.088503415 _8_ RTR  --- 2 message 32 [0 ffffffff d 800] ------- [13:255 -1:255 32 0] 
r 0.088503416 _24_ RTR  --- 2 message 32 [0 ffffffff d 800] ------- [13:255 -1:255 32 0] 
r 0.088503418 _3_ RTR  --- 2 message 32 [0 ffffffff d 800] ------- [13:255 -1:255 32 0] 
r 0.088503487 _12_ RTR  --- 2 message 32 [0 ffffffff d 800] ------- [13:255 -1:255 32 0] 
r 0.088503499 _29_ RTR  --- 2 message 32 [0 ffffffff d 800] ------- [13:255 -1:255 32 0] 
r 0.088503511 _4_ RTR  --- 2 message 32 [0 ffffffff d 800] ------- [13:255 -1:255 32 0] 
r 0.088503516 _11_ RTR  --- 2 message 32 [0 ffffffff d 800] ------- [13:255 -1:255 32 0] 
r 0.088503592 _23_ RTR  --- 2 message 32 [0 ffffffff d 800] ------- [13:255 -1:255 32 0] 
s 0.177365656 _3_ RTR  --- 3 message 32 [0 0 0 0] ------- [3:255 -1:255 32 0] 
r 0.178305742 _12_ RTR  --- 3 message 32 [0 ffffffff 3 800] ------- [3:255 -1:255 32 0] 
r 0.178305756 _29_ RTR  --- 3 message 32 [0 ffffffff 3 800] ------- [3:255 -1:255 32 0] 
r 0.178305770 _4_ RTR  --- 3 message 32 [0 ffffffff 3 800] ------- [3:255 -1:255 32 0] 
r 0.178306083 _18_ RTR  --- 3 message 32 [0 ffffffff 3 800] ------- [3:255 -1:255 32 0] 
r 0.178306139 _1_ RTR  --- 3 message 32 [0 ffffffff 3 800] ------- [3:255 -1:255 32 0] 
r 0.178306146 _14_ RTR  --- 3 message 32 [0 ffffffff 3 800] ------- [3:255 -1:255 32 0] 
r 0.178306225 _21_ RTR  --- 3 message 32 [0 ffffffff 3 800] ------- [3:255 -1:255 32 0] 
r 0.178306239 _25_ RTR  --- 3 message 32 [0 ffffffff 3 800] ------- [3:255 -1:255 32 0] 
r 0.178306306 _13_ RTR  --- 3 message 32 [0 ffffffff 3 800] ------- [3:255 -1:255 32 0] 
r 0.178306313 _27_ RTR  --- 3 message 32 [0 ffffffff 3 800] ------- [3:255 -1:255 32 0] 
s 0.191634337 _19_ RTR  --- 4 message 32 [0 0 0 0] ------- [19:255 -1:255 32 0] 
r 0.192634404 _7_ RTR  --- 4 message 32 [0 ffffffff 13 800] ------- [19:255 -1:255 32 0] 
r 0.192634814 _6_ RTR  --- 4 message 32 [0 ffffffff 13 800] ------- [19:255 -1:255 32 0] 
r 0.192634906 _9_ RTR  --- 4 message 32 [0 ffffffff 13 800] ------- [19:255 -1:255 32 0] 
r 0.192634946 _5_ RTR  --- 4 message 32 [0 ffffffff 13 800] ------- [19:255 -1:255 32 0] 
r 0.192634946 _15_ RTR  --- 4 message 32 [0 ffffffff 13 800] ------- [19:255 -1:255 32 0] 
r 0.192634955 _26_ RTR  --- 4 message 32 [0 ffffffff 13 800] ------- [19:255 -1:255 32 0] 
r 0.192634962 _28_ RTR  --- 4 message 32 [0 ffffffff 13 800] ------- [19:255 -1:255 32 0] 
r 0.192635022 _20_ RTR  --- 4 message 32 [0 ffffffff 13 800] ------- [19:255 -1:255 32 0] 
r 0.192635045 _0_ RTR  --- 4 message 32 [0 ffffffff 13 800] ------- [19:255 -1:255 32 0] 
r 0.192635068 _2_ RTR  --- 4 message 32 [0 ffffffff 13 800] ------- [19:255 -1:255 32 0] 
r 0.192635131 _23_ RTR  --- 4 message 32 [0 ffffffff 13 800] ------- [19:255 -1:255 32 0] 
s 0.234603229 _15_ RTR  --- 5 message 32 [0 0 0 0] ------- [15:255 -1:255 32 0] 
r 0.235643316 _5_ RTR  --- 5 message 32 [0 ffffffff f 800] ------- [15:255 -1:255 32 0] 
r 0.235643371 _28_ RTR  --- 5 message 32 [0 ffffffff f 800] ------- [15:255 -1:255 32 0] 
r 0.235643389 _26_ RTR  --- 5 message 32 [0 ffffffff f 800] ------- [15:255 -1:255 32 0] 
r 0.235643422 _23_ RTR  --- 5 message 32 [0 ffffffff f 800] ------- [15:255 -1:255 32 0] 
r 0.235643477 _20_ RTR  --- 5 message 32 [0 ffffffff f 800] ------- [15:255 -1:255 32 0] 
r 0.235643641 _0_ RTR  --- 5 message 32 [0 ffffffff f 800] ------- [15:255 -1:255 32 0] 
r 0.235643644 _9_ RTR  --- 5 message 32 [0 ffffffff f 800] ------- [15:255 -1:255 32 0] 
r 0.235643666 _2_ RTR  --- 5 message 32 [0 ffffffff f 800] ------- [15:255 -1:255 32 0] 
r 0.235643753 _11_ RTR  --- 5 message 32 [0 ffffffff f 800] ------- [15:255 -1:255 32 0] 
r 0.235643839 _19_ RTR  --- 5 message 32 [0 ffffffff f 800] ------- [15:255 -1:255 32 0] 
r 0.235643848 _6_ RTR  --- 5 message 32 [0 ffffffff f 800] ------- [15:255 -1:255 32 0] 
r 0.235643901 _7_ RTR  --- 5 message 32 [0 ffffffff f 800] ------- [15:255 -1:255 32 0] 
r 0.235643922 _8_ RTR  --- 5 message 32 [0 ffffffff f 800] ------- [15:255 -1:255 32 0] 
r 0.235643929 _16_ RTR  --- 5 message 32 [0 ffffffff f 800] ------- [15:255 -1:255 32 0] 
r 0.235643936 _24_ RTR  --- 5 message 32 [0 ffffffff f 800] ------- [15:255 -1:255 32 0] 
s 0.333839210 _12_ RTR  --- 6 message 32 [0 0 0 0] ------- [12:255 -1:255 32 0] 
r 0.334739224 _29_ RTR  --- 6 message 32 [0 ffffffff c 800] ------- [12:255 -1:255 32 0] 
r 0.334739238 _4_ RTR  --- 6 message 32 [0 ffffffff c 800] ------- [12:255 -1:255 32 0] 
r 0.334739296 _3_ RTR  --- 6 message 32 [0 ffffffff c 800] ------- [12:255 -1:255 32 0] 
r 0.334739607 _1_ RTR  --- 6 message 32 [0 ffffffff c 800] ------- [12:255 -1:255 32 0] 
r 0.334739616 _14_ RTR  --- 6 message 32 [0 ffffffff c 800] ------- [12:255 -1:255 32 0] 
r 0.334739708 _21_ RTR  --- 6 message 32 [0 ffffffff c 800] ------- [12:255 -1:255 32 0] 
r 0.334739724 _18_ RTR  --- 6 message 32 [0 ffffffff c 800] ------- [12:255 -1:255 32 0] 
r 0.334739736 _25_ RTR  --- 6 message 32 [0 ffffffff c 800] ------- [12:255 -1:255 32 0] 
r 0.334739807 _27_ RTR  --- 6 message 32 [0 ffffffff c 800] ------- [12:255 -1:255 32 0] 
r 0.334739929 _13_ RTR  --- 6 message 32 [0 ffffffff c 800] ------- [12:255 -1:255 32 0] 
s 0.351472650 _18_ RTR  --- 7 message 32 [0 0 0 0] ------- [18:255 -1:255 32 0] 
r 0.352593064 _13_ RTR  --- 7 message 32 [0 ffffffff 12 800] ------- [18:255 -1:255 32 0] 
r 0.352593078 _3_ RTR  --- 7 message 32 [0 ffffffff 12 800] ------- [18:255 -1:255 32 0] 
r 0.352593164 _12_ RTR  --- 7 message 32 [0 ffffffff 12 800] ------- [18:255 -1:255 32 0] 
r 0.352593178 _29_ RTR  --- 7 message 32 [0 ffffffff 12 800] ------- [18:255 -1:255 32 0] 
r 0.352593192 _4_ RTR  --- 7 message 32 [0 ffffffff 12 800] ------- [18:255 -1:255 32 0] 
r 0.352593223 _16_ RTR  --- 7 message 32 [0 ffffffff 12 800] ------- [18:255 -1:255 32 0] 
r 0.352593359 _11_ RTR  --- 7 message 32 [0 ffffffff 12 800] ------- [18:255 -1:255 32 0] 
s 0.436386259 _29_ RTR  --- 8 message 32 [0 0 0 0] ------- [29:255 -1:255 32 0] 
r 0.437446273 _4_ RTR  --- 8 message 32 [0 ffffffff 1d 800] ------- [29:255 -1:255 32 0] 
r 0.437446273 _12_ RTR  --- 8 message 32 [0 ffffffff 1d 800] ------- [29:255 -1:255 32 0] 
r 0.437446360 _3_ RTR  --- 8 message 32 [0 ffffffff 1d 800] ------- [29:255 -1:255 32 0] 
r 0.437446642 _1_ RTR  --- 8 message 32 [0 ffffffff 1d 800] ------- [29:255 -1:255 32 0] 
r 0.437446651 _14_ RTR  --- 8 message 32 [0 ffffffff 1d 800] ------- [29:255 -1:255 32 0] 
r 0.437446746 _21_ RTR  --- 8 message 32 [0 ffffffff 1d 800] ------- [29:255 -1:255 32 0] 
r 0.437446777 _25_ RTR  --- 8 message 32 [0 ffffffff 1d 800] ------- [29:255 -1:255 32 0] 
r 0.437446787 _18_ RTR  --- 8 message 32 [0 ffffffff 1d 800] ------- [29:255 -1:255 32 0] 
r 0.437446846 _27_ RTR  --- 8 message 32 [0 ffffffff 1d 800] ------- [29:255 -1:255 32 0] 
r 0.437446990 _13_ RTR  --- 8 message 32 [0 ffffffff 1d 800] ------- [29:255 -1:255 32 0] 
s 0.470117073 _8_ RTR  --- 9 message 32 [0 0 0 0] ------- [8:255 -1:255 32 0] 
r 0.471397087 _24_ RTR  --- 9 message 32 [0 ffffffff 8 800] ------- [8:255 -1:255 32 0] 
r 0.471397434 _22_ RTR  --- 9 message 32 [0 ffffffff 8 800] ------- [8:255 -1:255 32 0] 
r 0.471397518 _16_ RTR  --- 9 message 32 [0 ffffffff 8 800] ------- [8:255 -1:255 32 0] 
r 0.471397577 _2_ RTR  --- 9 message 32 [0 ffffffff 8 800] ------- [8:255 -1:255 32 0] 
r 0.471397590 _0_ RTR  --- 9 message 32 [0 ffffffff 8 800] ------- [8:255 -1:255 32 0] 
r 0.471397603 _23_ RTR  --- 9 message 32 [0 ffffffff 8 800] ------- [8:255 -1:255 32 0] 
r 0.471397671 _26_ RTR  --- 9 message 32 [0 ffffffff 8 800] ------- [8:255 -1:255 32 0] 
r 0.471397671 _28_ RTR  --- 9 message 32 [0 ffffffff 8 800] ------- [8:255 -1:255 32 0] 
r 0.471397711 _5_ RTR  --- 9 message 32 [0 ffffffff 8 800] ------- [8:255 -1:255 32 0] 
r 0.471397720 _13_ RTR  --- 9 message 32 [0 ffffffff 8 800] ------- [8:255 -1:255 32 0] 
r 0.471397766 _15_ RTR  --- 9 message 32 [0 ffffffff 8 800] ------- [8:255 -1:255 32 0] 
r 0.471397785 _10_ RTR  --- 9 message 32 [0 ffffffff 8 800] ------- [8:255 -1:255 32 0] 
r 0.471397906 _11_ RTR  --- 9 message 32 [0 ffffffff 8 800] ------- [8:255 -1:255 32 0] 
s 0.521504883 _22_ RTR  --- 10 message 32 [0 0 0 0] ------- [22:255 -1:255 32 0] 
r 0.522405234 _10_ RTR  --- 10 message 32 [0 ffffffff 16 800] ------- [22:255 -1:255 32 0] 
r 0.522405236 _24_ RTR  --- 10 message 32 [0 ffffffff 16 800] ------- [22:255 -1:255 32 0] 
r 0.522405244 _8_ RTR  --- 10 message 32 [0 ffffffff 16 800] ------- [22:255 -1:255 32 0] 
r 0.522405321 _13_ RTR  --- 10 message 32 [0 ffffffff 16 800] ------- [22:255 -1:255 32 0] 
r 0.522405326 _16_ RTR  --- 10 message 32 [0 ffffffff 16 800] ------- [22:255 -1:255 32 0] 
r 0.522405689 _23_ RTR  --- 10 message 32 [0 ffffffff 16 800] ------- [22:255 -1:255 32 0] 
s 0.626302117 _10_ RTR  --- 11 message 32 [0 0 0 0] ------- [10:255 -1:255 32 0] 
r 0.627242468 _22_ RTR  --- 11 message 32 [0 ffffffff a 800] ------- [10:255 -1:255 32 0] 
r 0.627242587 _13_ RTR  --- 11 message 32 [0 ffffffff a 800] ------- [10:255 -1:255 32 0] 
r 0.627242784 _16_ RTR  --- 11 message 32 [0 ffffffff a 800] ------- [10:255 -1:255 32 0] 
r 0.627242821 _24_ RTR  --- 11 message 32 [0 ffffffff a 800] ------- [10:255 -1:255 32 0] 
r 0.627242829 _8_ RTR  --- 11 message 32 [0 ffffffff a 800] ------- [10:255 -1:255 32 0] 
r 0.627242892 _17_ RTR  --- 11 message 32 [0 ffffffff a 800] ------- [10:255 -1:255 32 0] 
r 0.627242926 _25_ RTR  --- 11 message 32 [0 ffffffff a 800] ------- [10:255 -1:255 32 0] 
s 0.633203961 _6_ RTR  --- 12 message 32 [0 0 0 0] ------- [6:255 -1:255 32 0] 
r 0.634604363 _0_ RTR  --- 12 message 32 [0 ffffffff 6 800] ------- [6:255 -1:255 32 0] 
r 0.634604370 _2_ RTR  --- 12 message 32 [0 ffffffff 6 800] ------- [6:255 -1:255 32 0] 
r 0.634604438 _19_ RTR  --- 12 message 32 [0 ffffffff 6 800] ------- [6:255 -1:255 32 0] 
r 0.634604439 _7_ RTR  --- 12 message 32 [0 ffffffff 6 800] ------- [6:255 -1:255 32 0] 
r 0.634604467 _26_ RTR  --- 12 message 32 [0 ffffffff 6 800] ------- [6:255 -1:255 32 0] 
r 0.634604488 _28_ RTR  --- 12 message 32 [0 ffffffff 6 800] ------- [6:255 -1:255 32 0] 
r 0.634604516 _5_ RTR  --- 12 message 32 [0 ffffffff 6 800] ------- [6:255 -1:255 32 0] 
r 0.634604580 _15_ RTR  --- 12 message 32 [0 ffffffff 6 800] ------- [6:255 -1:255 32 0] 
r 0.634604684 _23_ RTR  --- 12 message 32 [0 ffffffff 6 800] ------- [6:255 -1:255 32 0] 
r 0.634604791 _20_ RTR  --- 12 message 32 [0 ffffffff 6 800] ------- [6:255 -1:255 32 0] 
s 0.703066137 _21_ RTR  --- 13 message 32 [0 0 0 0] ------- [21:255 -1:255 32 0] 
r 0.704426273 _25_ RTR  --- 13 message 32 [0 ffffffff 15 800] ------- [21:255 -1:255 32 0] 
r 0.704426281 _27_ RTR  --- 13 message 32 [0 ffffffff 15 800] ------- [21:255 -1:255 32 0] 
r 0.704426348 _14_ RTR  --- 13 message 32 [0 ffffffff 15 800] ------- [21:255 -1:255 32 0] 
r 0.704426416 _1_ RTR  --- 13 message 32 [0 ffffffff 15 800] ------- [21:255 -1:255 32 0] 
r 0.704426607 _17_ RTR  --- 13 message 32 [0 ffffffff 15 800] ------- [21:255 -1:255 32 0] 
r 0.704426613 _4_ RTR  --- 13 message 32 [0 ffffffff 15 800] ------- [21:255 -1:255 32 0] 
r 0.704426624 _29_ RTR  --- 13 message 32 [0 ffffffff 15 800] ------- [21:255 -1:255 32 0] 
r 0.704426635 _12_ RTR  --- 13 message 32 [0 ffffffff 15 800] ------- [21:255 -1:255 32 0] 
r 0.704426706 _3_ RTR  --- 13 message 32 [0 ffffffff 15 800] ------- [21:255 -1:255 32 0] 
s 0.818871236 _23_ RTR  --- 14 message 32 [0 0 0 0] ------- [23:255 -1:255 32 0] 
r 0.820031427 _5_ RTR  --- 14 message 32 [0 ffffffff 17 800] ------- [23:255 -1:255 32 0] 
r 0.820031429 _15_ RTR  --- 14 message 32 [0 ffffffff 17 800] ------- [23:255 -1:255 32 0] 
r 0.820031435 _28_ RTR  --- 14 message 32 [0 ffffffff 17 800] ------- [23:255 -1:255 32 0] 
r 0.820031454 _26_ RTR  --- 14 message 32 [0 ffffffff 17 800] ------- [23:255 -1:255 32 0] 
r 0.820031579 _20_ RTR  --- 14 message 32 [0 ffffffff 17 800] ------- [23:255 -1:255 32 0] 
r 0.820031646 _0_ RTR  --- 14 message 32 [0 ffffffff 17 800] ------- [23:255 -1:255 32 0] 
r 0.820031664 _2_ RTR  --- 14 message 32 [0 ffffffff 17 800] ------- [23:255 -1:255 32 0] 
r 0.820031687 _11_ RTR  --- 14 message 32 [0 ffffffff 17 800] ------- [23:255 -1:255 32 0] 
r 0.820031748 _16_ RTR  --- 14 message 32 [0 ffffffff 17 800] ------- [23:255 -1:255 32 0] 
r 0.820031767 _8_ RTR  --- 14 message 32 [0 ffffffff 17 800] ------- [23:255 -1:255 32 0] 
r 0.820031781 _24_ RTR  --- 14 message 32 [0 ffffffff 17 800] ------- [23:255 -1:255 32 0] 
r 0.820031802 _9_ RTR  --- 14 message 32 [0 ffffffff 17 800] ------- [23:255 -1:255 32 0] 
r 0.820031959 _6_ RTR  --- 14 message 32 [0 ffffffff 17 800] ------- [23:255 -1:255 32 0] 
r 0.820032030 _19_ RTR  --- 14 message 32 [0 ffffffff 17 800] ------- [23:255 -1:255 32 0] 
r 0.820032042 _22_ RTR  --- 14 message 32 [0 ffffffff 17 800] ------- [23:255 -1:255 32 0] 
r 0.820032060 _13_ RTR  --- 14 message 32 [0 ffffffff 17 800] ------- [23:255 -1:255 32 0] 
s 0.847315218 _17_ RTR  --- 15 message 32 [0 0 0 0] ------- [17:255 -1:255 32 0] 
r 0.848315544 _27_ RTR  --- 15 message 32 [0 ffffffff 11 800] ------- [17:255 -1:255 32 0] 
r 0.848315581 _25_ RTR  --- 15 message 32 [0 ffffffff 11 800] ------- [17:255 -1:255 32 0] 
r 0.848315688 _21_ RTR  --- 15 message 32 [0 ffffffff 11 800] ------- [17:255 -1:255 32 0] 
r 0.848315900 _14_ RTR  --- 15 message 32 [0 ffffffff 11 800] ------- [17:255 -1:255 32 0] 
r 0.848315967 _1_ RTR  --- 15 message 32 [0 ffffffff 11 800] ------- [17:255 -1:255 32 0] 
r 0.848315993 _10_ RTR  --- 15 message 32 [0 ffffffff 11 800] ------- [17:255 -1:255 32 0] 
s 0.891466156 _4_ RTR  --- 16 message 32 [0 0 0 0] ------- [4:255 -1:255 32 0] 
r 0.892406170 _29_ RTR  --- 16 message 32 [0 ffffffff 4 800] ------- [4:255 -1:255 32 0] 
r 0.892406184 _12_ RTR  --- 16 message 32 [0 ffffffff 4 800] ------- [4:255 -1:255 32 0] 
r 0.892406271 _3_ RTR  --- 16 message 32 [0 ffffffff 4 800] ------- [4:255 -1:255 32 0] 
r 0.892406525 _1_ RTR  --- 16 message 32 [0 ffffffff 4 800] ------- [4:255 -1:255 32 0] 
r 0.892406535 _14_ RTR  --- 16 message 32 [0 ffffffff 4 800] ------- [4:255 -1:255 32 0] 
r 0.892406632 _21_ RTR  --- 16 message 32 [0 ffffffff 4 800] ------- [4:255 -1:255 32 0] 
r 0.892406666 _25_ RTR  --- 16 message 32 [0 ffffffff 4 800] ------- [4:255 -1:255 32 0] 
r 0.892406698 _18_ RTR  --- 16 message 32 [0 ffffffff 4 800] ------- [4:255 -1:255 32 0] 
r 0.892406734 _27_ RTR  --- 16 message 32 [0 ffffffff 4 800] ------- [4:255 -1:255 32 0] 
r 0.892406899 _13_ RTR  --- 16 message 32 [0 ffffffff 4 800] ------- [4:255 -1:255 32 0] 
s 0.932265375 _25_ RTR  --- 17 message 32 [0 0 0 0] ------- [25:255 -1:255 32 0] 
r 0.933225455 _27_ RTR  --- 17 message 32 [0 ffffffff 19 800] ------- [25:255 -1:255 32 0] 
r 0.933225512 _21_ RTR  --- 17 message 32 [0 ffffffff 19 800] ------- [25:255 -1:255 32 0] 
r 0.933225710 _14_ RTR  --- 17 message 32 [0 ffffffff 19 800] ------- [25:255 -1:255 32 0] 
r 0.933225739 _17_ RTR  --- 17 message 32 [0 ffffffff 19 800] ------- [25:255 -1:255 32 0] 
r 0.933225776 _1_ RTR  --- 17 message 32 [0 ffffffff 19 800] ------- [25:255 -1:255 32 0] 
r 0.933225885 _4_ RTR  --- 17 message 32 [0 ffffffff 19 800] ------- [25:255 -1:255 32 0] 
r 0.933225893 _29_ RTR  --- 17 message 32 [0 ffffffff 19 800] ------- [25:255 -1:255 32 0] 
r 0.933225902 _12_ RTR  --- 17 message 32 [0 ffffffff 19 800] ------- [25:255 -1:255 32 0] 
r 0.933225959 _3_ RTR  --- 17 message 32 [0 ffffffff 19 800] ------- [25:255 -1:255 32 0] 
r 0.933226184 _10_ RTR  --- 17 message 32 [0 ffffffff 19 800] ------- [25:255 -1:255 32 0] 
M 1.00000 0 (601.65, 232.66, 0.00), (601.65, 239.78), 7.12
M 1.00000 1 (1.65, 8.57, 0.00), (1.65, 8.57), 15.00
s 1.045355908 _24_ RTR  --- 18 message 32 [0 0 0 0] ------- [24:255 -1:255 32 0] 
r 1.046675922 _8_ RTR  --- 18 message 32 [0 ffffffff 18 800] ------- [24:255 -1:255 32 0] 
r 1.046676261 _22_ RTR  --- 18 message 32 [0 ffffffff 18 800] ------- [24:255 -1:255 32 0] 
r 1.046676360 _16_ RTR  --- 18 message 32 [0 ffffffff 18 800] ------- [24:255 -1:255 32 0] 
r 1.046676421 _2_ RTR  --- 18 message 32 [0 ffffffff 18 800] ------- [24:255 -1:255 32 0] 
r 1.046676435 _0_ RTR  --- 18 message 32 [0 ffffffff 18 800] ------- [24:255 -1:255 32 0] 
r 1.046676452 _23_ RTR  --- 18 message 32 [0 ffffffff 18 800] ------- [24:255 -1:255 32 0] 
r 1.046676519 _26_ RTR  --- 18 message 32 [0 ffffffff 18 800] ------- [24:255 -1:255 32 0] 
r 1.046676519 _28_ RTR  --- 18 message 32 [0 ffffffff 18 800] ------- [24:255 -1:255 32 0] 
r 1.046676556 _13_ RTR  --- 18 message 32 [0 ffffffff 18 800] ------- [24:255 -1:255 32 0] 
r 1.046676560 _5_ RTR  --- 18 message 32 [0 ffffffff 18 800] ------- [24:255 -1:255 32 0] 
r 1.046676612 _10_ RTR  --- 18 message 32 [0 ffffffff 18 800] ------- [24:255 -1:255 32 0] 
r 1.046676614 _15_ RTR  --- 18 message 32 [0 ffffffff 18 800] ------- [24:255 -1:255 32 0] 
s 1.117914998 _1_ RTR  --- 19 message 32 [0 0 0 0] ------- [1:255 -1:255 32 0] 
r 1.118995066 _14_ RTR  --- 19 message 32 [0 ffffffff 1 800] ------- [1:255 -1:255 32 0] 
r 1.118995277 _21_ RTR  --- 19 message 32 [0 ffffffff 1 800] ------- [1:255 -1:255 32 0] 
r 1.118995367 _4_ RTR  --- 19 message 32 [0 ffffffff 1 800] ------- [1:255 -1:255 32 0] 
r 1.118995381 _29_ RTR  --- 19 message 32 [0 ffffffff 1 800] ------- [1:255 -1:255 32 0] 
r 1.118995395 _12_ RTR  --- 19 message 32 [0 ffffffff 1 800] ------- [1:255 -1:255 32 0] 
r 1.118995399 _25_ RTR  --- 19 message 32 [0 ffffffff 1 800] ------- [1:255 -1:255 32 0] 
r 1.118995421 _27_ RTR  --- 19 message 32 [0 ffffffff 1 800] ------- [1:255 -1:255 32 0] 
r 1.118995481 _3_ RTR  --- 19 message 32 [0 ffffffff 1 800] ------- [1:255 -1:255 32 0] 
r 1.118995748 _17_ RTR  --- 19 message 32 [0 ffffffff 1 800] ------- [1:255 -1:255 32 0] 
s 1.279806438 _9_ RTR  --- 20 message 32 [0 0 0 0] ------- [9:255 -1:255 32 0] 
r 1.281146683 _20_ RTR  --- 20 message 32 [0 ffffffff 9 800] ------- [9:255 -1:255 32 0] 
r 1.281146852 _15_ RTR  --- 20 message 32 [0 ffffffff 9 800] ------- [9:255 -1:255 32 0] 
r 1.281146929 _5_ RTR  --- 20 message 32 [0 ffffffff 9 800] ------- [9:255 -1:255 32 0] 
r 1.281146983 _28_ RTR  --- 20 message 32 [0 ffffffff 9 800] ------- [9:255 -1:255 32 0] 
r 1.281146996 _26_ RTR  --- 20 message 32 [0 ffffffff 9 800] ------- [9:255 -1:255 32 0] 
r 1.281147003 _23_ RTR  --- 20 message 32 [0 ffffffff 9 800] ------- [9:255 -1:255 32 0] 
r 1.281147007 _19_ RTR  --- 20 message 32 [0 ffffffff 9 800] ------- [9:255 -1:255 32 0] 
r 1.281147027 _11_ RTR  --- 20 message 32 [0 ffffffff 9 800] ------- [9:255 -1:255 32 0] 
r 1.281147073 _7_ RTR  --- 20 message 32 [0 ffffffff 9 800] ------- [9:255 -1:255 32 0] 
r 1.281147242 _0_ RTR  --- 20 message 32 [0 ffffffff 9 800] ------- [9:255 -1:255 32 0] 
r 1.281147263 _2_ RTR  --- 20 message 32 [0 ffffffff 9 800] ------- [9:255 -1:255 32 0] 
s 1.284507540 _14_ RTR  --- 21 message 32 [0 0 0 0] ------- [14:255 -1:255 32 0] 
r 1.285347608 _1_ RTR  --- 21 message 32 [0 ffffffff e 800] ------- [14:255 -1:255 32 0] 
r 1.285347751 _21_ RTR  --- 21 message 32 [0 ffffffff e 800] ------- [14:255 -1:255 32 0] 
r 1.285347874 _25_ RTR  --- 21 message 32 [0 ffffffff e 800] ------- [14:255 -1:255 32 0] 
r 1.285347896 _27_ RTR  --- 21 message 32 [0 ffffffff e 800] ------- [14:255 -1:255 32 0] 
r 1.285347919 _4_ RTR  --- 21 message 32 [0 ffffffff e 800] ------- [14:255 -1:255 32 0] 
r 1.285347932 _29_ RTR  --- 21 message 32 [0 ffffffff e 800] ------- [14:255 -1:255 32 0] 
r 1.285347946 _12_ RTR  --- 21 message 32 [0 ffffffff e 800] ------- [14:255 -1:255 32 0] 
r 1.285348031 _3_ RTR  --- 21 message 32 [0 ffffffff e 800] ------- [14:255 -1:255 32 0] 
r 1.285348222 _17_ RTR  --- 21 message 32 [0 ffffffff e 800] ------- [14:255 -1:255 32 0] 
s 1.388917713 _26_ RTR  --- 22 message 32 [0 0 0 0] ------- [26:255 -1:255 32 0] 
r 1.389757735 _28_ RTR  --- 22 message 32 [0 ffffffff 1a 800] ------- [26:255 -1:255 32 0] 
r 1.389757787 _5_ RTR  --- 22 message 32 [0 ffffffff 1a 800] ------- [26:255 -1:255 32 0] 
r 1.389757873 _15_ RTR  --- 22 message 32 [0 ffffffff 1a 800] ------- [26:255 -1:255 32 0] 
r 1.389757931 _23_ RTR  --- 22 message 32 [0 ffffffff 1a 800] ------- [26:255 -1:255 32 0] 
r 1.389757974 _0_ RTR  --- 22 message 32 [0 ffffffff 1a 800] ------- [26:255 -1:255 32 0] 
r 1.389757990 _2_ RTR  --- 22 message 32 [0 ffffffff 1a 800] ------- [26:255 -1:255 32 0] 
r 1.389758121 _20_ RTR  --- 22 message 32 [0 ffffffff 1a 800] ------- [26:255 -1:255 32 0] 
r 1.389758220 _6_ RTR  --- 22 message 32 [0 ffffffff 1a 800] ------- [26:255 -1:255 32 0] 
r 1.389758272 _9_ RTR  --- 22 message 32 [0 ffffffff 1a 800] ------- [26:255 -1:255 32 0] 
r 1.389758311 _8_ RTR  --- 22 message 32 [0 ffffffff 1a 800] ------- [26:255 -1:255 32 0] 
r 1.389758324 _24_ RTR  --- 22 message 32 [0 ffffffff 1a 800] ------- [26:255 -1:255 32 0] 
r 1.389758331 _19_ RTR  --- 22 message 32 [0 ffffffff 1a 800] ------- [26:255 -1:255 32 0] 
r 1.389758357 _11_ RTR  --- 22 message 32 [0 ffffffff 1a 800] ------- [26:255 -1:255 32 0] 
r 1.389758385 _7_ RTR  --- 22 message 32 [0 ffffffff 1a 800] ------- [26:255 -1:255 32 0] 
r 1.389758418 _16_ RTR  --- 22 message 32 [0 ffffffff 1a 800] ------- [26:255 -1:255 32 0] 
s 1.603158648 _5_ RTR  --- 23 message 32 [0 0 0 0] ------- [5:255 -1:255 32 0] 
r 1.604458704 _28_ RTR  --- 23 message 32 [0 ffffffff 5 800] ------- [5:255 -1:255 32 0] 
r 1.604458721 _26_ RTR  --- 23 message 32 [0 ffffffff 5 800] ------- [5:255 -1:255 32 0] 
r 1.604458734 _15_ RTR  --- 23 message 32 [0 ffffffff 5 800] ------- [5:255 -1:255 32 0] 
r 1.604458838 _23_ RTR  --- 23 message 32 [0 ffffffff 5 800] ------- [5:255 -1:255 32 0] 
r 1.604458982 _20_ RTR  --- 23 message 32 [0 ffffffff 5 800] ------- [5:255 -1:255 32 0] 
r 1.604458988 _0_ RTR  --- 23 message 32 [0 ffffffff 5 800] ------- [5:255 -1:255 32 0] 
r 1.604458999 _2_ RTR  --- 23 message 32 [0 ffffffff 5 800] ------- [5:255 -1:255 32 0] 
r 1.604459139 _9_ RTR  --- 23 message 32 [0 ffffffff 5 800] ------- [5:255 -1:255 32 0] 
r 1.604459203 _6_ RTR  --- 23 message 32 [0 ffffffff 5 800] ------- [5:255 -1:255 32 0] 
r 1.604459234 _11_ RTR  --- 23 message 32 [0 ffffffff 5 800] ------- [5:255 -1:255 32 0] 
r 1.604459257 _19_ RTR  --- 23 message 32 [0 ffffffff 5 800] ------- [5:255 -1:255 32 0] 
r 1.604459286 _8_ RTR  --- 23 message 32 [0 ffffffff 5 800] ------- [5:255 -1:255 32 0] 
r 1.604459299 _24_ RTR  --- 23 message 32 [0 ffffffff 5 800] ------- [5:255 -1:255 32 0] 
r 1.604459315 _7_ RTR  --- 23 message 32 [0 ffffffff 5 800] ------- [5:255 -1:255 32 0] 
r 1.604459346 _16_ RTR  --- 23 message 32 [0 ffffffff 5 800] ------- [5:255 -1:255 32 0] 
s 1.615642244 _20_ RTR  --- 24 message 32 [0 0 0 0] ------- [20:255 -1:255 32 0] 
r 1.616642490 _9_ RTR  --- 24 message 32 [0 ffffffff 14 800] ------- [20:255 -1:255 32 0] 
r 1.616642492 _15_ RTR  --- 24 message 32 [0 ffffffff 14 800] ------- [20:255 -1:255 32 0] 
r 1.616642579 _5_ RTR  --- 24 message 32 [0 ffffffff 14 800] ------- [20:255 -1:255 32 0] 
r 1.616642588 _23_ RTR  --- 24 message 32 [0 ffffffff 14 800] ------- [20:255 -1:255 32 0] 
r 1.616642631 _11_ RTR  --- 24 message 32 [0 ffffffff 14 800] ------- [20:255 -1:255 32 0] 
r 1.616642634 _28_ RTR  --- 24 message 32 [0 ffffffff 14 800] ------- [20:255 -1:255 32 0] 
r 1.616642652 _26_ RTR  --- 24 message 32 [0 ffffffff 14 800] ------- [20:255 -1:255 32 0] 
r 1.616642918 _0_ RTR  --- 24 message 32 [0 ffffffff 14 800] ------- [20:255 -1:255 32 0] 
r 1.616642929 _2_ RTR  --- 24 message 32 [0 ffffffff 14 800] ------- [20:255 -1:255 32 0] 
r 1.616642930 _19_ RTR  --- 24 message 32 [0 ffffffff 14 800] ------- [20:255 -1:255 32 0] 
r 1.616642996 _16_ RTR  --- 24 message 32 [0 ffffffff 14 800] ------- [20:255 -1:255 32 0] 
r 1.616642997 _7_ RTR  --- 24 message 32 [0 ffffffff 14 800] ------- [20:255 -1:255 32 0] 
r 1.616643074 _6_ RTR  --- 24 message 32 [0 ffffffff 14 800] ------- [20:255 -1:255 32 0] 
s 1.641665551 _7_ RTR  --- 25 message 32 [0 0 0 0] ------- [7:255 -1:255 32 0] 
r 1.642585619 _19_ RTR  --- 25 message 32 [0 ffffffff 7 800] ------- [7:255 -1:255 32 0] 
r 1.642586029 _6_ RTR  --- 25 message 32 [0 ffffffff 7 800] ------- [7:255 -1:255 32 0] 
r 1.642586186 _9_ RTR  --- 25 message 32 [0 ffffffff 7 800] ------- [7:255 -1:255 32 0] 
r 1.642586218 _5_ RTR  --- 25 message 32 [0 ffffffff 7 800] ------- [7:255 -1:255 32 0] 
r 1.642586222 _26_ RTR  --- 25 message 32 [0 ffffffff 7 800] ------- [7:255 -1:255 32 0] 
r 1.642586222 _15_ RTR  --- 25 message 32 [0 ffffffff 7 800] ------- [7:255 -1:255 32 0] 
r 1.642586231 _28_ RTR  --- 25 message 32 [0 ffffffff 7 800] ------- [7:255 -1:255 32 0] 
r 1.642586302 _0_ RTR  --- 25 message 32 [0 ffffffff 7 800] ------- [7:255 -1:255 32 0] 
r 1.642586304 _20_ RTR  --- 25 message 32 [0 ffffffff 7 800] ------- [7:255 -1:255 32 0] 
r 1.642586317 _2_ RTR  --- 25 message 32 [0 ffffffff 7 800] ------- [7:255 -1:255 32 0] 
s 1.674915381 _11_ RTR  --- 26 message 32 [0 0 0 0] ------- [11:255 -1:255 32 0] 
r 1.676315767 _20_ RTR  --- 26 message 32 [0 ffffffff b 800] ------- [11:255 -1:255 32 0] 
r 1.676315831 _23_ RTR  --- 26 message 32 [0 ffffffff b 800] ------- [11:255 -1:255 32 0] 
r 1.676315904 _16_ RTR  --- 26 message 32 [0 ffffffff b 800] ------- [11:255 -1:255 32 0] 
r 1.676315904 _15_ RTR  --- 26 message 32 [0 ffffffff b 800] ------- [11:255 -1:255 32 0] 
r 1.676315967 _5_ RTR  --- 26 message 32 [0 ffffffff b 800] ------- [11:255 -1:255 32 0] 
r 1.676315970 _9_ RTR  --- 26 message 32 [0 ffffffff b 800] ------- [11:255 -1:255 32 0] 
r 1.676316003 _28_ RTR  --- 26 message 32 [0 ffffffff b 800] ------- [11:255 -1:255 32 0] 
r 1.676316024 _26_ RTR  --- 26 message 32 [0 ffffffff b 800] ------- [11:255 -1:255 32 0] 
r 1.676316090 _18_ RTR  --- 26 message 32 [0 ffffffff b 800] ------- [11:255 -1:255 32 0] 
r 1.676316129 _13_ RTR  --- 26 message 32 [0 ffffffff b 800] ------- [11:255 -1:255 32 0] 
r 1.676316214 _8_ RTR  --- 26 message 32 [0 ffffffff b 800] ------- [11:255 -1:255 32 0] 
s 1.687590785 _28_ RTR  --- 27 message 32 [0 0 0 0] ------- [28:255 -1:255 32 0] 
r 1.688550807 _26_ RTR  --- 27 message 32 [0 ffffffff 1c 800] ------- [28:255 -1:255 32 0] 
r 1.688550842 _5_ RTR  --- 27 message 32 [0 ffffffff 1c 800] ------- [28:255 -1:255 32 0] 
r 1.688550927 _15_ RTR  --- 27 message 32 [0 ffffffff 1c 800] ------- [28:255 -1:255 32 0] 
r 1.688550984 _23_ RTR  --- 27 message 32 [0 ffffffff 1c 800] ------- [28:255 -1:255 32 0] 
r 1.688551072 _0_ RTR  --- 27 message 32 [0 ffffffff 1c 800] ------- [28:255 -1:255 32 0] 
r 1.688551081 _2_ RTR  --- 27 message 32 [0 ffffffff 1c 800] ------- [28:255 -1:255 32 0] 
r 1.688551175 _20_ RTR  --- 27 message 32 [0 ffffffff 1c 800] ------- [28:255 -1:255 32 0] 
r 1.688551312 _6_ RTR  --- 27 message 32 [0 ffffffff 1c 800] ------- [28:255 -1:255 32 0] 
r 1.688551331 _9_ RTR  --- 27 message 32 [0 ffffffff 1c 800] ------- [28:255 -1:255 32 0] 
r 1.688551383 _8_ RTR  --- 27 message 32 [0 ffffffff 1c 800] ------- [28:255 -1:255 32 0] 