n -t * -s 0  -x 713.92999999999995 -y 1436.6600000000001 -Z 0 -z 100  -v circle -c black
n -t * -s 1  -x 623.79999999999995 -y 897.89999999999998 -Z 0 -z 100  -v circle -c black
n -t * -s 2  -x 585.51999999999998 -y 995.82000000000005 -Z 0 -z 100  -v circle -c black
n -t * -s 3  -x 267.61000000000001 -y 740.45000000000005 -Z 0 -z 100  -v circle -c black
n -t * -s 4  -x 184.22 -y 1073.45 -Z 0 -z 100  -v circle -c black
n -t * -s 5  -x 85.689999999999998 -y 775.13999999999999 -Z 0 -z 100  -v circle -c black
n -t * -s 6  -x 573.90999999999997 -y 371.44 -Z 0 -z 100  -v circle -c black
n -t * -s 7  -x 952.17999999999995 -y 101.70999999999999 -Z 0 -z 100  -v circle -c black
n -t * -s 8  -x 763.25999999999999 -y 199.36000000000001 -Z 0 -z 100  -v circle -c black
n -t * -s 9  -x 1035.8800000000001 -y 1385.55 -Z 0 -z 100  -v circle -c black
n -t * -s 10  -x 1037.52 -y 1063.72 -Z 0 -z 100  -v circle -c black
n -t * -s 11  -x 505.95999999999998 -y 1178.4400000000001 -Z 0 -z 100  -v circle -c black
n -t * -s 12  -x 79.370000000000005 -y 308.55000000000001 -Z 0 -z 100  -v circle -c black
n -t * -s 13  -x 387.85000000000002 -y 1110.8900000000001 -Z 0 -z 100  -v circle -c black
n -t * -s 14  -x 271.69999999999999 -y 499.95999999999998 -Z 0 -z 100  -v circle -c black
n -t * -s 15  -x 1291.3399999999999 -y 607.97000000000003 -Z 0 -z 100  -v circle -c black
n -t * -s 16  -x 1043.8800000000001 -y 107.58 -Z 0 -z 100  -v circle -c black
n -t * -s 17  -x 1185.5899999999999 -y 764.12 -Z 0 -z 100  -v circle -c black
n -t * -s 18  -x 984.67999999999995 -y 683.82000000000005 -Z 0 -z 100  -v circle -c black
n -t * -s 19  -x 512.17999999999995 -y 861.71000000000004 -Z 0 -z 100  -v circle -c black
n -t * -s 20  -x 786.01999999999998 -y 1121.6600000000001 -Z 0 -z 100  -v circle -c black
n -t * -s 21  -x 86.5 -y 1396.47 -Z 0 -z 100  -v circle -c black
n -t * -s 22  -x 725.75 -y 493.86000000000001 -Z 0 -z 100  -v circle -c black
n -t * -s 23  -x 377.72000000000003 -y 1159.3900000000001 -Z 0 -z 100  -v circle -c black
n -t * -s 24  -x 721.72000000000003 -y 74.799999999999997 -Z 0 -z 100  -v circle -c black
n -t * -s 25  -x 834.00999999999999 -y 499.98000000000002 -Z 0 -z 100  -v circle -c black
n -t * -s 26  -x 0 -y 0 -Z 0 -z 100  -v circle -c black
n -t * -s 27  -x 0 -y 0 -Z 0 -z 100  -v circle -c black
n -t * -s 28  -x 0 -y 1000 -Z 0 -z 100  -v circle -c black
n -t * -s 29  -x 1000 -y 0 -Z 0 -z 100  -v circle -c black
V -t * -v 1.0a5 -a 0
W -t * -x 1700 -y 1700
A -t * -n 1 -p 0 -o 0x7fffffff -c 30 -a 1
A -t * -h 1 -m 1073741823 -s 0
n -t 0.000000 -s 0 -x 713.930000 -y 1436.660000 -U 0.000000 -V 0.000000 -T 0.000000
n -t 0.000000 -s 1 -x 623.800000 -y 897.900000 -U 0.000000 -V 0.000000 -T 0.000000
n -t 0.000000 -s 2 -x 585.520000 -y 995.820000 -U 0.000000 -V 0.000000 -T 0.000000
n -t 0.000000 -s 3 -x 267.610000 -y 740.450000 -U 0.000000 -V 0.000000 -T 0.000000
n -t 0.000000 -s 4 -x 184.220000 -y 1073.450000 -U 0.000000 -V 0.000000 -T 0.000000
n -t 0.000000 -s 5 -x 85.690000 -y 775.140000 -U 0.000000 -V 0.000000 -T 0.000000
n -t 0.000000 -s 6 -x 573.910000 -y 371.440000 -U 0.000000 -V 0.000000 -T 0.000000
n -t 0.000000 -s 7 -x 952.180000 -y 101.710000 -U 0.000000 -V 0.000000 -T 0.000000
n -t 0.000000 -s 8 -x 763.260000 -y 199.360000 -U 0.000000 -V 0.000000 -T 0.000000
n -t 0.000000 -s 9 -x 1035.880000 -y 1385.550000 -U 0.000000 -V 0.000000 -T 0.000000
n -t 0.000000 -s 10 -x 1037.520000 -y 1063.720000 -U 0.000000 -V 0.000000 -T 0.000000
n -t 0.000000 -s 11 -x 505.960000 -y 1178.440000 -U 0.000000 -V 0.000000 -T 0.000000
n -t 0.000000 -s 12 -x 79.370000 -y 308.550000 -U 0.000000 -V 0.000000 -T 0.000000
n -t 0.000000 -s 13 -x 387.850000 -y 1110.890000 -U 0.000000 -V 0.000000 -T 0.000000
n -t 0.000000 -s 14 -x 271.700000 -y 499.960000 -U 0.000000 -V 0.000000 -T 0.000000
n -t 0.000000 -s 15 -x 1291.340000 -y 607.970000 -U 0.000000 -V 0.000000 -T 0.000000
n -t 0.000000 -s 16 -x 1043.880000 -y 107.580000 -U 0.000000 -V 0.000000 -T 0.000000
n -t 0.000000 -s 17 -x 1185.590000 -y 764.120000 -U 0.000000 -V 0.000000 -T 0.000000
n -t 0.000000 -s 18 -x 984.680000 -y 683.820000 -U 0.000000 -V 0.000000 -T 0.000000
n -t 0.000000 -s 19 -x 512.180000 -y 861.710000 -U 0.000000 -V 0.000000 -T 0.000000
n -t 0.000000 -s 20 -x 786.020000 -y 1121.660000 -U 0.000000 -V 0.000000 -T 0.000000
n -t 0.000000 -s 21 -x 86.500000 -y 1396.470000 -U 0.000000 -V 0.000000 -T 0.000000
n -t 0.000000 -s 22 -x 725.750000 -y 493.860000 -U 0.000000 -V 0.000000 -T 0.000000
n -t 0.000000 -s 23 -x 377.720000 -y 1159.390000 -U 0.000000 -V 0.000000 -T 0.000000
n -t 0.000000 -s 24 -x 721.720000 -y 74.800000 -U 0.000000 -V 0.000000 -T 0.000000
n -t 0.000000 -s 25 -x 834.010000 -y 499.980000 -U 0.000000 -V 0.000000 -T 0.000000
n -t 0.000000 -s 0 -x 713.930000 -y 1436.660000 -U 0.000000 -V 0.000000 -T 0.000000
n -t 0.000000 -s 1 -x 623.800000 -y 897.900000 -U 0.000000 -V 0.000000 -T 0.000000
+ -t 0.003091411 -s 0 -d -1 -p message -e 32 -c 2 -a 0 -i 0 -k RTR 
- -t 0.003091411 -s 0 -d -1 -p message -e 32 -c 2 -a 0 -i 0 -k RTR
h -t 0.003091411 -s 0 -d -1 -p message -e 32 -c 2 -a 0 -i 0 -k RTR
+ -t 0.003466411 -s 0 -d -1 -p message -e 90 -c 2 -a 0 -i 0 -k MAC 
- -t 0.003466411 -s 0 -d -1 -p message -e 90 -c 2 -a 0 -i 0 -k MAC
h -t 0.003466411 -s 0 -d -1 -p message -e 90 -c 2 -a 0 -i 0 -k MAC
r -t 0.004187488 -s 20 -d -1 -p message -e 32 -c 2 -a 0 -i 0 -k MAC
r -t 0.004187497 -s 9 -d -1 -p message -e 32 -c 2 -a 0 -i 0 -k MAC
r -t 0.004187516 -s 11 -d -1 -p message -e 32 -c 2 -a 0 -i 0 -k MAC
r -t 0.004212488 -s 20 -d -1 -p message -e 32 -c 2 -a 0 -i 0 -k RTR
r -t 0.004212497 -s 9 -d -1 -p message -e 32 -c 2 -a 0 -i 0 -k RTR
r -t 0.004212516 -s 11 -d -1 -p message -e 32 -c 2 -a 0 -i 0 -k RTR
+ -t 0.037458776 -s 2 -d -1 -p message -e 32 -c 2 -a 0 -i 1 -k RTR 
- -t 0.037458776 -s 2 -d -1 -p message -e 32 -c 2 -a 0 -i 1 -k RTR
h -t 0.037458776 -s 2 -d -1 -p message -e 32 -c 2 -a 0 -i 1 -k RTR
+ -t 0.037813776 -s 2 -d -1 -p message -e 90 -c 2 -a 0 -i 1 -k MAC 
- -t 0.037813776 -s 2 -d -1 -p message -e 90 -c 2 -a 0 -i 1 -k MAC
h -t 0.037813776 -s 2 -d -1 -p message -e 90 -c 2 -a 0 -i 1 -k MAC
r -t 0.038534126 -s 1 -d -1 -p message -e 32 -c 2 -a 0 -i 1 -k MAC
r -t 0.038534286 -s 19 -d -1 -p message -e 32 -c 2 -a 0 -i 1 -k MAC
r -t 0.038534440 -s 11 -d -1 -p message -e 32 -c 2 -a 0 -i 1 -k MAC
r -t 0.038534538 -s 13 -d -1 -p message -e 32 -c 2 -a 0 -i 1 -k MAC
r -t 0.038534565 -s 20 -d -1 -p message -e 32 -c 2 -a 0 -i 1 -k MAC
r -t 0.038534658 -s 23 -d -1 -p message -e 32 -c 2 -a 0 -i 1 -k MAC
r -t 0.038559126 -s 1 -d -1 -p message -e 32 -c 2 -a 0 -i 1 -k RTR
r -t 0.038559286 -s 19 -d -1 -p message -e 32 -c 2 -a 0 -i 1 -k RTR
r -t 0.038559440 -s 11 -d -1 -p message -e 32 -c 2 -a 0 -i 1 -k RTR
r -t 0.038559538 -s 13 -d -1 -p message -e 32 -c 2 -a 0 -i 1 -k RTR
r -t 0.038559565 -s 20 -d -1 -p message -e 32 -c 2 -a 0 -i 1 -k RTR
r -t 0.038559658 -s 23 -d -1 -p message -e 32 -c 2 -a 0 -i 1 -k RTR
+ -t 0.087462768 -s 13 -d -1 -p message -e 32 -c 2 -a 0 -i 2 -k RTR 
- -t 0.087462768 -s 13 -d -1 -p message -e 32 -c 2 -a 0 -i 2 -k RTR
h -t 0.087462768 -s 13 -d -1 -p message -e 32 -c 2 -a 0 -i 2 -k RTR
+ -t 0.087757768 -s 13 -d -1 -p message -e 90 -c 2 -a 0 -i 2 -k MAC 
- -t 0.087757768 -s 13 -d -1 -p message -e 90 -c 2 -a 0 -i 2 -k MAC
h -t 0.087757768 -s 13 -d -1 -p message -e 90 -c 2 -a 0 -i 2 -k MAC
r -t 0.088477933 -s 23 -d -1 -p message -e 32 -c 2 -a 0 -i 2 -k MAC
r -t 0.088478221 -s 11 -d -1 -p message -e 32 -c 2 -a 0 -i 2 -k MAC
r -t 0.088478458 -s 4 -d -1 -p message -e 32 -c 2 -a 0 -i 2 -k MAC
r -t 0.088478530 -s 2 -d -1 -p message -e 32 -c 2 -a 0 -i 2 -k MAC
r -t 0.088478696 -s 19 -d -1 -p message -e 32 -c 2 -a 0 -i 2 -k MAC
r -t 0.088478827 -s 1 -d -1 -p message -e 32 -c 2 -a 0 -i 2 -k MAC
r -t 0.088479066 -s 3 -d -1 -p message -e 32 -c 2 -a 0 -i 2 -k MAC
r -t 0.088479096 -s 20 -d -1 -p message -e 32 -c 2 -a 0 -i 2 -k MAC
r -t 0.088502933 -s 23 -d -1 -p message -e 32 -c 2 -a 0 -i 2 -k RTR
r -t 0.088503221 -s 11 -d -1 -p message -e 32 -c 2 -a 0 -i 2 -k RTR
r -t 0.088503458 -s 4 -d -1 -p message -e 32 -c 2 -a 0 -i 2 -k RTR
r -t 0.088503530 -s 2 -d -1 -p message -e 32 -c 2 -a 0 -i 2 -k RTR
r -t 0.088503696 -s 19 -d -1 -p message -e 32 -c 2 -a 0 -i 2 -k RTR
r -t 0.088503827 -s 1 -d -1 -p message -e 32 -c 2 -a 0 -i 2 -k RTR
r -t 0.088504066 -s 3 -d -1 -p message -e 32 -c 2 -a 0 -i 2 -k RTR
r -t 0.088504096 -s 20 -d -1 -p message -e 32 -c 2 -a 0 -i 2 -k RTR
+ -t 0.177365656 -s 3 -d -1 -p message -e 32 -c 2 -a 0 -i 3 -k RTR 
- -t 0.177365656 -s 3 -d -1 -p message -e 32 -c 2 -a 0 -i 3 -k RTR
h -t 0.177365656 -s 3 -d -1 -p message -e 32 -c 2 -a 0 -i 3 -k RTR
+ -t 0.177560656 -s 3 -d -1 -p message -e 90 -c 2 -a 0 -i 3 -k MAC 
- -t 0.177560656 -s 3 -d -1 -p message -e 90 -c 2 -a 0 -i 3 -k MAC
h -t 0.177560656 -s 3 -d -1 -p message -e 90 -c 2 -a 0 -i 3 -k MAC
r -t 0.178281273 -s 5 -d -1 -p message -e 32 -c 2 -a 0 -i 3 -k MAC
r -t 0.178281458 -s 14 -d -1 -p message -e 32 -c 2 -a 0 -i 3 -k MAC
r -t 0.178281566 -s 19 -d -1 -p message -e 32 -c 2 -a 0 -i 3 -k MAC
r -t 0.178281800 -s 4 -d -1 -p message -e 32 -c 2 -a 0 -i 3 -k MAC
r -t 0.178281898 -s 28 -d -1 -p message -e 32 -c 2 -a 0 -i 3 -k MAC
r -t 0.178281954 -s 1 -d -1 -p message -e 32 -c 2 -a 0 -i 3 -k MAC
r -t 0.178281954 -s 13 -d -1 -p message -e 32 -c 2 -a 0 -i 3 -k MAC
r -t 0.178306273 -s 5 -d -1 -p message -e 32 -c 2 -a 0 -i 3 -k RTR
r -t 0.178306458 -s 14 -d -1 -p message -e 32 -c 2 -a 0 -i 3 -k RTR
r -t 0.178306566 -s 19 -d -1 -p message -e 32 -c 2 -a 0 -i 3 -k RTR
r -t 0.178306800 -s 4 -d -1 -p message -e 32 -c 2 -a 0 -i 3 -k RTR
r -t 0.178306898 -s 28 -d -1 -p message -e 32 -c 2 -a 0 -i 3 -k RTR
r -t 0.178306954 -s 1 -d -1 -p message -e 32 -c 2 -a 0 -i 3 -k RTR
r -t 0.178306954 -s 13 -d -1 -p message -e 32 -c 2 -a 0 -i 3 -k RTR
+ -t 0.191634337 -s 19 -d -1 -p message -e 32 -c 2 -a 0 -i 4 -k RTR 
- -t 0.191634337 -s 19 -d -1 -p message -e 32 -c 2 -a 0 -i 4 -k RTR
h -t 0.191634337 -s 19 -d -1 -p message -e 32 -c 2 -a 0 -i 4 -k RTR
+ -t 0.191889337 -s 19 -d -1 -p message -e 90 -c 2 -a 0 -i 4 -k MAC 
- -t 0.191889337 -s 19 -d -1 -p message -e 90 -c 2 -a 0 -i 4 -k MAC
h -t 0.191889337 -s 19 -d -1 -p message -e 90 -c 2 -a 0 -i 4 -k MAC
r -t 0.192609728 -s 1 -d -1 -p message -e 32 -c 2 -a 0 -i 4 -k MAC
r -t 0.192609846 -s 2 -d -1 -p message -e 32 -c 2 -a 0 -i 4 -k MAC
r -t 0.192610247 -s 3 -d -1 -p message -e 32 -c 2 -a 0 -i 4 -k MAC
r -t 0.192610265 -s 13 -d -1 -p message -e 32 -c 2 -a 0 -i 4 -k MAC
r -t 0.192610393 -s 11 -d -1 -p message -e 32 -c 2 -a 0 -i 4 -k MAC
r -t 0.192610425 -s 23 -d -1 -p message -e 32 -c 2 -a 0 -i 4 -k MAC
r -t 0.192610595 -s 20 -d -1 -p message -e 32 -c 2 -a 0 -i 4 -k MAC
r -t 0.192610638 -s 4 -d -1 -p message -e 32 -c 2 -a 0 -i 4 -k MAC
r -t 0.192634728 -s 1 -d -1 -p message -e 32 -c 2 -a 0 -i 4 -k RTR
r -t 0.192634846 -s 2 -d -1 -p message -e 32 -c 2 -a 0 -i 4 -k RTR
r -t 0.192635247 -s 3 -d -1 -p message -e 32 -c 2 -a 0 -i 4 -k RTR
r -t 0.192635265 -s 13 -d -1 -p message -e 32 -c 2 -a 0 -i 4 -k RTR
r -t 0.192635393 -s 11 -d -1 -p message -e 32 -c 2 -a 0 -i 4 -k RTR
r -t 0.192635425 -s 23 -d -1 -p message -e 32 -c 2 -a 0 -i 4 -k RTR
r -t 0.192635595 -s 20 -d -1 -p message -e 32 -c 2 -a 0 -i 4 -k RTR
r -t 0.192635638 -s 4 -d -1 -p message -e 32 -c 2 -a 0 -i 4 -k RTR
+ -t 0.234603229 -s 15 -d -1 -p message -e 32 -c 2 -a 0 -i 5 -k RTR 
- -t 0.234603229 -s 15 -d -1 -p message -e 32 -c 2 -a 0 -i 5 -k RTR
h -t 0.234603229 -s 15 -d -1 -p message -e 32 -c 2 -a 0 -i 5 -k RTR
+ -t 0.234898229 -s 15 -d -1 -p message -e 90 -c 2 -a 0 -i 5 -k MAC 
- -t 0.234898229 -s 15 -d -1 -p message -e 90 -c 2 -a 0 -i 5 -k MAC
h -t 0.234898229 -s 15 -d -1 -p message -e 90 -c 2 -a 0 -i 5 -k MAC
r -t 0.235618858 -s 17 -d -1 -p message -e 32 -c 2 -a 0 -i 5 -k MAC
r -t 0.235619282 -s 18 -d -1 -p message -e 32 -c 2 -a 0 -i 5 -k MAC
r -t 0.235643858 -s 17 -d -1 -p message -e 32 -c 2 -a 0 -i 5 -k RTR
r -t 0.235644282 -s 18 -d -1 -p message -e 32 -c 2 -a 0 -i 5 -k RTR
+ -t 0.333839210 -s 12 -d -1 -p message -e 32 -c 2 -a 0 -i 6 -k RTR 
- -t 0.333839210 -s 12 -d -1 -p message -e 32 -c 2 -a 0 -i 6 -k RTR
h -t 0.333839210 -s 12 -d -1 -p message -e 32 -c 2 -a 0 -i 6 -k RTR
+ -t 0.333994210 -s 12 -d -1 -p message -e 90 -c 2 -a 0 -i 6 -k MAC 
- -t 0.333994210 -s 12 -d -1 -p message -e 90 -c 2 -a 0 -i 6 -k MAC
h -t 0.333994210 -s 12 -d -1 -p message -e 90 -c 2 -a 0 -i 6 -k MAC
r -t 0.334715114 -s 14 -d -1 -p message -e 32 -c 2 -a 0 -i 6 -k MAC
r -t 0.334715272 -s 27 -d -1 -p message -e 32 -c 2 -a 0 -i 6 -k MAC
r -t 0.334715272 -s 26 -d -1 -p message -e 32 -c 2 -a 0 -i 6 -k MAC
r -t 0.334740114 -s 14 -d -1 -p message -e 32 -c 2 -a 0 -i 6 -k RTR
r -t 0.334740272 -s 27 -d -1 -p message -e 32 -c 2 -a 0 -i 6 -k RTR
r -t 0.334740272 -s 26 -d -1 -p message -e 32 -c 2 -a 0 -i 6 -k RTR
+ -t 0.351472650 -s 18 -d -1 -p message -e 32 -c 2 -a 0 -i 7 -k RTR 
- -t 0.351472650 -s 18 -d -1 -p message -e 32 -c 2 -a 0 -i 7 -k RTR
h -t 0.351472650 -s 18 -d -1 -p message -e 32 -c 2 -a 0 -i 7 -k RTR
+ -t 0.351847650 -s 18 -d -1 -p message -e 90 -c 2 -a 0 -i 7 -k MAC 
- -t 0.351847650 -s 18 -d -1 -p message -e 90 -c 2 -a 0 -i 7 -k MAC
h -t 0.351847650 -s 18 -d -1 -p message -e 90 -c 2 -a 0 -i 7 -k MAC
r -t 0.352568371 -s 17 -d -1 -p message -e 32 -c 2 -a 0 -i 7 -k MAC
r -t 0.352568443 -s 25 -d -1 -p message -e 32 -c 2 -a 0 -i 7 -k MAC
r -t 0.352568703 -s 15 -d -1 -p message -e 32 -c 2 -a 0 -i 7 -k MAC
r -t 0.352568721 -s 22 -d -1 -p message -e 32 -c 2 -a 0 -i 7 -k MAC
r -t 0.352568929 -s 10 -d -1 -p message -e 32 -c 2 -a 0 -i 7 -k MAC
r -t 0.352593371 -s 17 -d -1 -p message -e 32 -c 2 -a 0 -i 7 -k RTR
r -t 0.352593443 -s 25 -d -1 -p message -e 32 -c 2 -a 0 -i 7 -k RTR
r -t 0.352593703 -s 15 -d -1 -p message -e 32 -c 2 -a 0 -i 7 -k RTR
r -t 0.352593721 -s 22 -d -1 -p message -e 32 -c 2 -a 0 -i 7 -k RTR
r -t 0.352593929 -s 10 -d -1 -p message -e 32 -c 2 -a 0 -i 7 -k RTR
+ -t 0.436386259 -s 29 -d -1 -p message -e 32 -c 2 -a 0 -i 8 -k RTR 
- -t 0.436386259 -s 29 -d -1 -p message -e 32 -c 2 -a 0 -i 8 -k RTR
h -t 0.436386259 -s 29 -d -1 -p message -e 32 -c 2 -a 0 -i 8 -k RTR
+ -t 0.436701259 -s 29 -d -1 -p message -e 90 -c 2 -a 0 -i 8 -k MAC 
- -t 0.436701259 -s 29 -d -1 -p message -e 90 -c 2 -a 0 -i 8 -k MAC
h -t 0.436701259 -s 29 -d -1 -p message -e 90 -c 2 -a 0 -i 8 -k MAC
r -t 0.437421634 -s 7 -d -1 -p message -e 32 -c 2 -a 0 -i 8 -k MAC
r -t 0.437421646 -s 16 -d -1 -p message -e 32 -c 2 -a 0 -i 8 -k MAC
r -t 0.437422220 -s 24 -d -1 -p message -e 32 -c 2 -a 0 -i 8 -k MAC
r -t 0.437422291 -s 8 -d -1 -p message -e 32 -c 2 -a 0 -i 8 -k MAC
r -t 0.437446634 -s 7 -d -1 -p message -e 32 -c 2 -a 0 -i 8 -k RTR
r -t 0.437446646 -s 16 -d -1 -p message -e 32 -c 2 -a 0 -i 8 -k RTR
r -t 0.437447220 -s 24 -d -1 -p message -e 32 -c 2 -a 0 -i 8 -k RTR
r -t 0.437447291 -s 8 -d -1 -p message -e 32 -c 2 -a 0 -i 8 -k RTR
+ -t 0.470117073 -s 8 -d -1 -p message -e 32 -c 2 -a 0 -i 9 -k RTR 
- -t 0.470117073 -s 8 -d -1 -p message -e 32 -c 2 -a 0 -i 9 -k RTR
h -t 0.470117073 -s 8 -d -1 -p message -e 32 -c 2 -a 0 -i 9 -k RTR
+ -t 0.470652073 -s 8 -d -1 -p message -e 90 -c 2 -a 0 -i 9 -k MAC 
- -t 0.470652073 -s 8 -d -1 -p message -e 90 -c 2 -a 0 -i 9 -k MAC
h -t 0.470652073 -s 8 -d -1 -p message -e 90 -c 2 -a 0 -i 9 -k MAC
r -t 0.471372511 -s 24 -d -1 -p message -e 32 -c 2 -a 0 -i 9 -k MAC
r -t 0.471372782 -s 7 -d -1 -p message -e 32 -c 2 -a 0 -i 9 -k MAC
r -t 0.471372926 -s 6 -d -1 -p message -e 32 -c 2 -a 0 -i 9 -k MAC
r -t 0.471373057 -s 16 -d -1 -p message -e 32 -c 2 -a 0 -i 9 -k MAC
r -t 0.471373062 -s 22 -d -1 -p message -e 32 -c 2 -a 0 -i 9 -k MAC
r -t 0.471373102 -s 25 -d -1 -p message -e 32 -c 2 -a 0 -i 9 -k MAC
r -t 0.471373105 -s 29 -d -1 -p message -e 32 -c 2 -a 0 -i 9 -k MAC
r -t 0.471397511 -s 24 -d -1 -p message -e 32 -c 2 -a 0 -i 9 -k RTR
r -t 0.471397782 -s 7 -d -1 -p message -e 32 -c 2 -a 0 -i 9 -k RTR
r -t 0.471397926 -s 6 -d -1 -p message -e 32 -c 2 -a 0 -i 9 -k RTR
r -t 0.471398057 -s 16 -d -1 -p message -e 32 -c 2 -a 0 -i 9 -k RTR
r -t 0.471398062 -s 22 -d -1 -p message -e 32 -c 2 -a 0 -i 9 -k RTR
r -t 0.471398102 -s 25 -d -1 -p message -e 32 -c 2 -a 0 -i 9 -k RTR
r -t 0.471398105 -s 29 -d -1 -p message -e 32 -c 2 -a 0 -i 9 -k RTR
+ -t 0.521504883 -s 22 -d -1 -p message -e 32 -c 2 -a 0 -i 10 -k RTR 
- -t 0.521504883 -s 22 -d -1 -p message -e 32 -c 2 -a 0 -i 10 -k RTR
h -t 0.521504883 -s 22 -d -1 -p message -e 32 -c 2 -a 0 -i 10 -k RTR
+ -t 0.521659883 -s 22 -d -1 -p message -e 90 -c 2 -a 0 -i 10 -k MAC 
- -t 0.521659883 -s 22 -d -1 -p message -e 90 -c 2 -a 0 -i 10 -k MAC
h -t 0.521659883 -s 22 -d -1 -p message -e 90 -c 2 -a 0 -i 10 -k MAC
r -t 0.522380245 -s 25 -d -1 -p message -e 32 -c 2 -a 0 -i 10 -k MAC
r -t 0.522380533 -s 6 -d -1 -p message -e 32 -c 2 -a 0 -i 10 -k MAC
r -t 0.522380873 -s 8 -d -1 -p message -e 32 -c 2 -a 0 -i 10 -k MAC
r -t 0.522380954 -s 18 -d -1 -p message -e 32 -c 2 -a 0 -i 10 -k MAC
r -t 0.522405245 -s 25 -d -1 -p message -e 32 -c 2 -a 0 -i 10 -k RTR
r -t 0.522405533 -s 6 -d -1 -p message -e 32 -c 2 -a 0 -i 10 -k RTR
r -t 0.522405873 -s 8 -d -1 -p message -e 32 -c 2 -a 0 -i 10 -k RTR
r -t 0.522405954 -s 18 -d -1 -p message -e 32 -c 2 -a 0 -i 10 -k RTR
+ -t 0.556838879 -s 28 -d -1 -p cbr -e 512 -c 2 -a 0 -i 11 -k AGT 
- -t 0.556838879 -s 28 -d -1 -p cbr -e 512 -c 2 -a 0 -i 11 -k AGT
h -t 0.556838879 -s 28 -d -1 -p cbr -e 512 -c 2 -a 0 -i 11 -k AGT
+ -t 0.627186592 -s 10 -d -1 -p message -e 32 -c 2 -a 0 -i 12 -k RTR 
- -t 0.627186592 -s 10 -d -1 -p message -e 32 -c 2 -a 0 -i 12 -k RTR
h -t 0.627186592 -s 10 -d -1 -p message -e 32 -c 2 -a 0 -i 12 -k RTR
+ -t 0.627321592 -s 10 -d -1 -p message -e 90 -c 2 -a 0 -i 12 -k MAC 
- -t 0.627321592 -s 10 -d -1 -p message -e 90 -c 2 -a 0 -i 12 -k MAC
h -t 0.627321592 -s 10 -d -1 -p message -e 90 -c 2 -a 0 -i 12 -k MAC
r -t 0.628042452 -s 20 -d -1 -p message -e 32 -c 2 -a 0 -i 12 -k MAC
r -t 0.628042665 -s 9 -d -1 -p message -e 32 -c 2 -a 0 -i 12 -k MAC
r -t 0.628042706 -s 17 -d -1 -p message -e 32 -c 2 -a 0 -i 12 -k MAC
r -t 0.628042871 -s 18 -d -1 -p message -e 32 -c 2 -a 0 -i 12 -k MAC
r -t 0.628067452 -s 20 -d -1 -p message -e 32 -c 2 -a 0 -i 12 -k RTR
r -t 0.628067665 -s 9 -d -1 -p message -e 32 -c 2 -a 0 -i 12 -k RTR
r -t 0.628067706 -s 17 -d -1 -p message -e 32 -c 2 -a 0 -i 12 -k RTR
r -t 0.628067871 -s 18 -d -1 -p message -e 32 -c 2 -a 0 -i 12 -k RTR
+ -t 0.634670006 -s 6 -d -1 -p message -e 32 -c 2 -a 0 -i 13 -k RTR 
- -t 0.634670006 -s 6 -d -1 -p message -e 32 -c 2 -a 0 -i 13 -k RTR
h -t 0.634670006 -s 6 -d -1 -p message -e 32 -c 2 -a 0 -i 13 -k RTR
+ -t 0.634865006 -s 6 -d -1 -p message -e 90 -c 2 -a 0 -i 13 -k MAC 
- -t 0.634865006 -s 6 -d -1 -p message -e 90 -c 2 -a 0 -i 13 -k MAC
h -t 0.634865006 -s 6 -d -1 -p message -e 90 -c 2 -a 0 -i 13 -k MAC
r -t 0.635585656 -s 22 -d -1 -p message -e 32 -c 2 -a 0 -i 13 -k MAC
r -t 0.635585859 -s 8 -d -1 -p message -e 32 -c 2 -a 0 -i 13 -k MAC
r -t 0.635585973 -s 25 -d -1 -p message -e 32 -c 2 -a 0 -i 13 -k MAC
r -t 0.635586101 -s 14 -d -1 -p message -e 32 -c 2 -a 0 -i 13 -k MAC
r -t 0.635586111 -s 24 -d -1 -p message -e 32 -c 2 -a 0 -i 13 -k MAC
r -t 0.635610656 -s 22 -d -1 -p message -e 32 -c 2 -a 0 -i 13 -k RTR
r -t 0.635610859 -s 8 -d -1 -p message -e 32 -c 2 -a 0 -i 13 -k RTR
r -t 0.635610973 -s 25 -d -1 -p message -e 32 -c 2 -a 0 -i 13 -k RTR
r -t 0.635611101 -s 14 -d -1 -p message -e 32 -c 2 -a 0 -i 13 -k RTR
r -t 0.635611111 -s 24 -d -1 -p message -e 32 -c 2 -a 0 -i 13 -k RTR
+ -t 0.705637875 -s 21 -d -1 -p message -e 32 -c 2 -a 0 -i 14 -k RTR 
- -t 0.705637875 -s 21 -d -1 -p message -e 32 -c 2 -a 0 -i 14 -k RTR
h -t 0.705637875 -s 21 -d -1 -p message -e 32 -c 2 -a 0 -i 14 -k RTR
+ -t 0.706012875 -s 21 -d -1 -p message -e 90 -c 2 -a 0 -i 14 -k MAC 
- -t 0.706012875 -s 21 -d -1 -p message -e 90 -c 2 -a 0 -i 14 -k MAC
h -t 0.706012875 -s 21 -d -1 -p message -e 90 -c 2 -a 0 -i 14 -k MAC
r -t 0.706733999 -s 4 -d -1 -p message -e 32 -c 2 -a 0 -i 14 -k MAC
r -t 0.706734126 -s 23 -d -1 -p message -e 32 -c 2 -a 0 -i 14 -k MAC
r -t 0.706758999 -s 4 -d -1 -p message -e 32 -c 2 -a 0 -i 14 -k RTR
r -t 0.706759126 -s 23 -d -1 -p message -e 32 -c 2 -a 0 -i 14 -k RTR
+ -t 0.821435127 -s 23 -d -1 -p message -e 32 -c 2 -a 0 -i 15 -k RTR 
- -t 0.821435127 -s 23 -d -1 -p message -e 32 -c 2 -a 0 -i 15 -k RTR
h -t 0.821435127 -s 23 -d -1 -p message -e 32 -c 2 -a 0 -i 15 -k RTR
+ -t 0.821550127 -s 23 -d -1 -p message -e 90 -c 2 -a 0 -i 15 -k MAC 
- -t 0.821550127 -s 23 -d -1 -p message -e 90 -c 2 -a 0 -i 15 -k MAC
h -t 0.821550127 -s 23 -d -1 -p message -e 90 -c 2 -a 0 -i 15 -k MAC
r -t 0.822270292 -s 13 -d -1 -p message -e 32 -c 2 -a 0 -i 15 -k MAC
r -t 0.822270559 -s 11 -d -1 -p message -e 32 -c 2 -a 0 -i 15 -k MAC
r -t 0.822270833 -s 4 -d -1 -p message -e 32 -c 2 -a 0 -i 15 -k MAC
r -t 0.822271009 -s 2 -d -1 -p message -e 32 -c 2 -a 0 -i 15 -k MAC
r -t 0.822271216 -s 19 -d -1 -p message -e 32 -c 2 -a 0 -i 15 -k MAC
r -t 0.822271324 -s 1 -d -1 -p message -e 32 -c 2 -a 0 -i 15 -k MAC
r -t 0.822271379 -s 21 -d -1 -p message -e 32 -c 2 -a 0 -i 15 -k MAC
r -t 0.822295292 -s 13 -d -1 -p message -e 32 -c 2 -a 0 -i 15 -k RTR
r -t 0.822295559 -s 11 -d -1 -p message -e 32 -c 2 -a 0 -i 15 -k RTR
r -t 0.822295833 -s 4 -d -1 -p message -e 32 -c 2 -a 0 -i 15 -k RTR
r -t 0.822296009 -s 2 -d -1 -p message -e 32 -c 2 -a 0 -i 15 -k RTR
r -t 0.822296216 -s 19 -d -1 -p message -e 32 -c 2 -a 0 -i 15 -k RTR
r -t 0.822296324 -s 1 -d -1 -p message -e 32 -c 2 -a 0 -i 15 -k RTR
r -t 0.822296379 -s 21 -d -1 -p message -e 32 -c 2 -a 0 -i 15 -k RTR
+ -t 0.848147771 -s 17 -d -1 -p message -e 32 -c 2 -a 0 -i 16 -k RTR 
- -t 0.848147771 -s 17 -d -1 -p message -e 32 -c 2 -a 0 -i 16 -k RTR
h -t 0.848147771 -s 17 -d -1 -p message -e 32 -c 2 -a 0 -i 16 -k RTR
+ -t 0.848382771 -s 17 -d -1 -p message -e 90 -c 2 -a 0 -i 16 -k MAC 
- -t 0.848382771 -s 17 -d -1 -p message -e 90 -c 2 -a 0 -i 16 -k MAC
h -t 0.848382771 -s 17 -d -1 -p message -e 90 -c 2 -a 0 -i 16 -k MAC
r -t 0.849103400 -s 15 -d -1 -p message -e 32 -c 2 -a 0 -i 16 -k MAC
r -t 0.849103493 -s 18 -d -1 -p message -e 32 -c 2 -a 0 -i 16 -k MAC
r -t 0.849103885 -s 10 -d -1 -p message -e 32 -c 2 -a 0 -i 16 -k MAC
r -t 0.849128400 -s 15 -d -1 -p message -e 32 -c 2 -a 0 -i 16 -k RTR
r -t 0.849128493 -s 18 -d -1 -p message -e 32 -c 2 -a 0 -i 16 -k RTR
r -t 0.849128885 -s 10 -d -1 -p message -e 32 -c 2 -a 0 -i 16 -k RTR
+ -t 0.882674688 -s 4 -d -1 -p message -e 32 -c 2 -a 0 -i 17 -k RTR 
- -t 0.882674688 -s 4 -d -1 -p message -e 32 -c 2 -a 0 -i 17 -k RTR
h -t 0.882674688 -s 4 -d -1 -p message -e 32 -c 2 -a 0 -i 17 -k RTR
+ -t 0.882909688 -s 4 -d -1 -p message -e 90 -c 2 -a 0 -i 17 -k MAC 
- -t 0.882909688 -s 4 -d -1 -p message -e 90 -c 2 -a 0 -i 17 -k MAC
h -t 0.882909688 -s 4 -d -1 -p message -e 90 -c 2 -a 0 -i 17 -k MAC
r -t 0.883630349 -s 28 -d -1 -p message -e 32 -c 2 -a 0 -i 17 -k MAC
r -t 0.883630378 -s 13 -d -1 -p message -e 32 -c 2 -a 0 -i 17 -k MAC
r -t 0.883630393 -s 23 -d -1 -p message -e 32 -c 2 -a 0 -i 17 -k MAC
r -t 0.883630735 -s 5 -d -1 -p message -e 32 -c 2 -a 0 -i 17 -k MAC
r -t 0.883630813 -s 21 -d -1 -p message -e 32 -c 2 -a 0 -i 17 -k MAC
r -t 0.883630816 -s 11 -d -1 -p message -e 32 -c 2 -a 0 -i 17 -k MAC
r -t 0.883630832 -s 3 -d -1 -p message -e 32 -c 2 -a 0 -i 17 -k MAC
r -t 0.883630989 -s 19 -d -1 -p message -e 32 -c 2 -a 0 -i 17 -k MAC
r -t 0.883655349 -s 28 -d -1 -p message -e 32 -c 2 -a 0 -i 17 -k RTR
r -t 0.883655378 -s 13 -d -1 -p message -e 32 -c 2 -a 0 -i 17 -k RTR
r -t 0.883655393 -s 23 -d -1 -p message -e 32 -c 2 -a 0 -i 17 -k RTR
r -t 0.883655735 -s 5 -d -1 -p message -e 32 -c 2 -a 0 -i 17 -k RTR
r -t 0.883655813 -s 21 -d -1 -p message -e 32 -c 2 -a 0 -i 17 -k RTR
r -t 0.883655816 -s 11 -d -1 -p message -e 32 -c 2 -a 0 -i 17 -k RTR
r -t 0.883655832 -s 3 -d -1 -p message -e 32 -c 2 -a 0 -i 17 -k RTR
r -t 0.883655989 -s 19 -d -1 -p message -e 32 -c 2 -a 0 -i 17 -k RTR
+ -t 0.935449221 -s 25 -d -1 -p message -e 32 -c 2 -a 0 -i 18 -k RTR 
- -t 0.935449221 -s 25 -d -1 -p message -e 32 -c 2 -a 0 -i 18 -k RTR
h -t 0.935449221 -s 25 -d -1 -p message -e 32 -c 2 -a 0 -i 18 -k RTR
+ -t 0.935884221 -s 25 -d -1 -p message -e 90 -c 2 -a 0 -i 18 -k MAC 
- -t 0.935884221 -s 25 -d -1 -p message -e 90 -c 2 -a 0 -i 18 -k MAC
h -t 0.935884221 -s 25 -d -1 -p message -e 90 -c 2 -a 0 -i 18 -k MAC
r -t 0.936604582 -s 22 -d -1 -p message -e 32 -c 2 -a 0 -i 18 -k MAC
r -t 0.936605013 -s 18 -d -1 -p message -e 32 -c 2 -a 0 -i 18 -k MAC
r -t 0.936605188 -s 6 -d -1 -p message -e 32 -c 2 -a 0 -i 18 -k MAC
r -t 0.936605250 -s 8 -d -1 -p message -e 32 -c 2 -a 0 -i 18 -k MAC
r -t 0.936629582 -s 22 -d -1 -p message -e 32 -c 2 -a 0 -i 18 -k RTR
r -t 0.936630013 -s 18 -d -1 -p message -e 32 -c 2 -a 0 -i 18 -k RTR
r -t 0.936630188 -s 6 -d -1 -p message -e 32 -c 2 -a 0 -i 18 -k RTR
r -t 0.936630250 -s 8 -d -1 -p message -e 32 -c 2 -a 0 -i 18 -k RTR
+ -t 1.039009780 -s 24 -d -1 -p message -e 32 -c 2 -a 0 -i 19 -k RTR 
- -t 1.039009780 -s 24 -d -1 -p message -e 32 -c 2 -a 0 -i 19 -k RTR
h -t 1.039009780 -s 24 -d -1 -p message -e 32 -c 2 -a 0 -i 19 -k RTR
+ -t 1.039404780 -s 24 -d -1 -p message -e 90 -c 2 -a 0 -i 19 -k MAC 
- -t 1.039404780 -s 24 -d -1 -p message -e 90 -c 2 -a 0 -i 19 -k MAC
h -t 1.039404780 -s 24 -d -1 -p message -e 90 -c 2 -a 0 -i 19 -k MAC
r -t 1.040125217 -s 8 -d -1 -p message -e 32 -c 2 -a 0 -i 19 -k MAC
r -t 1.040125553 -s 7 -d -1 -p message -e 32 -c 2 -a 0 -i 19 -k MAC
r -t 1.040125740 -s 29 -d -1 -p message -e 32 -c 2 -a 0 -i 19 -k MAC
r -t 1.040125859 -s 16 -d -1 -p message -e 32 -c 2 -a 0 -i 19 -k MAC
r -t 1.040125885 -s 6 -d -1 -p message -e 32 -c 2 -a 0 -i 19 -k MAC
r -t 1.040150217 -s 8 -d -1 -p message -e 32 -c 2 -a 0 -i 19 -k RTR
r -t 1.040150553 -s 7 -d -1 -p message -e 32 -c 2 -a 0 -i 19 -k RTR
r -t 1.040150740 -s 29 -d -1 -p message -e 32 -c 2 -a 0 -i 19 -k RTR
r -t 1.040150859 -s 16 -d -1 -p message -e 32 -c 2 -a 0 -i 19 -k RTR
r -t 1.040150885 -s 6 -d -1 -p message -e 32 -c 2 -a 0 -i 19 -k RTR
+ -t 1.119657716 -s 1 -d -1 -p message -e 32 -c 2 -a 0 -i 20 -k RTR 
- -t 1.119657716 -s 1 -d -1 -p message -e 32 -c 2 -a 0 -i 20 -k RTR
h -t 1.119657716 -s 1 -d -1 -p message -e 32 -c 2 -a 0 -i 20 -k RTR
+ -t 1.119832716 -s 1 -d -1 -p message -e 90 -c 2 -a 0 -i 20 -k MAC 
- -t 1.119832716 -s 1 -d -1 -p message -e 90 -c 2 -a 0 -i 20 -k MAC
h -t 1.119832716 -s 1 -d -1 -p message -e 90 -c 2 -a 0 -i 20 -k MAC
r -t 1.120553066 -s 2 -d -1 -p message -e 32 -c 2 -a 0 -i 20 -k MAC
r -t 1.120553107 -s 19 -d -1 -p message -e 32 -c 2 -a 0 -i 20 -k MAC
r -t 1.120553637 -s 20 -d -1 -p message -e 32 -c 2 -a 0 -i 20 -k MAC
r -t 1.120553730 -s 11 -d -1 -p message -e 32 -c 2 -a 0 -i 20 -k MAC
r -t 1.120553775 -s 13 -d -1 -p message -e 32 -c 2 -a 0 -i 20 -k MAC
r -t 1.120553913 -s 23 -d -1 -p message -e 32 -c 2 -a 0 -i 20 -k MAC
r -t 1.120554014 -s 3 -d -1 -p message -e 32 -c 2 -a 0 -i 20 -k MAC
r -t 1.120578066 -s 2 -d -1 -p message -e 32 -c 2 -a 0 -i 20 -k RTR
r -t 1.120578107 -s 19 -d -1 -p message -e 32 -c 2 -a 0 -i 20 -k RTR
r -t 1.120578637 -s 20 -d -1 -p message -e 32 -c 2 -a 0 -i 20 -k RTR
r -t 1.120578730 -s 11 -d -1 -p message -e 32 -c 2 -a 0 -i 20 -k RTR
r -t 1.120578775 -s 13 -d -1 -p message -e 32 -c 2 -a 0 -i 20 -k RTR
r -t 1.120578913 -s 23 -d -1 -p message -e 32 -c 2 -a 0 -i 20 -k RTR
r -t 1.120579014 -s 3 -d -1 -p message -e 32 -c 2 -a 0 -i 20 -k RTR
+ -t 1.277890258 -s 9 -d -1 -p message -e 32 -c 2 -a 0 -i 21 -k RTR 
- -t 1.277890258 -s 9 -d -1 -p message -e 32 -c 2 -a 0 -i 21 -k RTR
h -t 1.277890258 -s 9 -d -1 -p message -e 32 -c 2 -a 0 -i 21 -k RTR
+ -t 1.278565258 -s 9 -d -1 -p message -e 90 -c 2 -a 0 -i 21 -k MAC 
- -t 1.278565258 -s 9 -d -1 -p message -e 90 -c 2 -a 0 -i 21 -k MAC
h -t 1.278565258 -s 9 -d -1 -p message -e 90 -c 2 -a 0 -i 21 -k MAC
r -t 1.279286331 -s 10 -d -1 -p message -e 32 -c 2 -a 0 -i 21 -k MAC
r -t 1.279286345 -s 0 -d -1 -p message -e 32 -c 2 -a 0 -i 21 -k MAC
r -t 1.279286470 -s 20 -d -1 -p message -e 32 -c 2 -a 0 -i 21 -k MAC
r -t 1.279311331 -s 10 -d -1 -p message -e 32 -c 2 -a 0 -i 21 -k RTR
r -t 1.279311345 -s 0 -d -1 -p message -e 32 -c 2 -a 0 -i 21 -k RTR
r -t 1.279311470 -s 20 -d -1 -p message -e 32 -c 2 -a 0 -i 21 -k RTR
+ -t 1.281327089 -s 14 -d -1 -p message -e 32 -c 2 -a 0 -i 22 -k RTR 
- -t 1.281327089 -s 14 -d -1 -p message -e 32 -c 2 -a 0 -i 22 -k RTR
h -t 1.281327089 -s 14 -d -1 -p message -e 32 -c 2 -a 0 -i 22 -k RTR
+ -t 1.281462089 -s 14 -d -1 -p message -e 90 -c 2 -a 0 -i 22 -k MAC 
- -t 1.281462089 -s 14 -d -1 -p message -e 90 -c 2 -a 0 -i 22 -k MAC
h -t 1.281462089 -s 14 -d -1 -p message -e 90 -c 2 -a 0 -i 22 -k MAC
r -t 1.282182891 -s 3 -d -1 -p message -e 32 -c 2 -a 0 -i 22 -k MAC
r -t 1.282182994 -s 12 -d -1 -p message -e 32 -c 2 -a 0 -i 22 -k MAC
r -t 1.282183184 -s 6 -d -1 -p message -e 32 -c 2 -a 0 -i 22 -k MAC
r -t 1.282183197 -s 5 -d -1 -p message -e 32 -c 2 -a 0 -i 22 -k MAC
r -t 1.282207891 -s 3 -d -1 -p message -e 32 -c 2 -a 0 -i 22 -k RTR
r -t 1.282207994 -s 12 -d -1 -p message -e 32 -c 2 -a 0 -i 22 -k RTR
r -t 1.282208184 -s 6 -d -1 -p message -e 32 -c 2 -a 0 -i 22 -k RTR
r -t 1.282208197 -s 5 -d -1 -p message -e 32 -c 2 -a 0 -i 22 -k RTR
+ -t 1.388842989 -s 26 -d -1 -p message -e 32 -c 2 -a 0 -i 23 -k RTR 
- -t 1.388842989 -s 26 -d -1 -p message -e 32 -c 2 -a 0 -i 23 -k RTR
h -t 1.388842989 -s 26 -d -1 -p message -e 32 -c 2 -a 0 -i 23 -k RTR
+ -t 1.389297989 -s 26 -d -1 -p message -e 90 -c 2 -a 0 -i 23 -k MAC 
- -t 1.389297989 -s 26 -d -1 -p message -e 90 -c 2 -a 0 -i 23 -k MAC
h -t 1.389297989 -s 26 -d -1 -p message -e 90 -c 2 -a 0 -i 23 -k MAC
r -t 1.390017989 -s 27 -d -1 -p message -e 32 -c 2 -a 0 -i 23 -k MAC
r -t 1.390019051 -s 12 -d -1 -p message -e 32 -c 2 -a 0 -i 23 -k MAC
r -t 1.390042989 -s 27 -d -1 -p message -e 32 -c 2 -a 0 -i 23 -k RTR
r -t 1.390044051 -s 12 -d -1 -p message -e 32 -c 2 -a 0 -i 23 -k RTR
+ -t 1.607278916 -s 5 -d -1 -p message -e 32 -c 2 -a 0 -i 24 -k RTR 
- -t 1.607278916 -s 5 -d -1 -p message -e 32 -c 2 -a 0 -i 24 -k RTR
h -t 1.607278916 -s 5 -d -1 -p message -e 32 -c 2 -a 0 -i 24 -k RTR
+ -t 1.607673916 -s 5 -d -1 -p message -e 90 -c 2 -a 0 -i 24 -k MAC 