M 0.0 nn 30 x 1700 y 1700 rp DSDV
M 0.0 sc dsdv-update.tcl cp trafic seed 1.0
M 0.0 prop Propagation/TwoRayGround ant Antenna/OmniAntenna
M 0.00000 0 (756.83, 886.21, 0.00), (756.83, 886.21), 0.00
M 0.00000 1 (1016.61, 642.22, 0.00), (1016.61, 642.22), 0.00
M 0.00000 2 (134.14, 1008.88, 0.00), (134.14, 1008.88), 0.00
M 0.00000 3 (377.51, 512.38, 0.00), (377.51, 512.38), 0.00
M 0.00000 4 (610.35, 299.36, 0.00), (610.35, 299.36), 0.00
M 0.00000 5 (554.71, 410.66, 0.00), (554.71, 410.66), 0.00
M 0.00000 6 (492.33, 288.56, 0.00), (492.33, 288.56), 0.00
M 0.00000 7 (240.07, 529.95, 0.00), (240.07, 529.95), 0.00
M 0.00000 8 (1129.31, 980.92, 0.00), (1129.31, 980.92), 0.00
M 0.00000 9 (872.03, 886.72, 0.00), (872.03, 886.72), 0.00
M 0.00000 10 (914.89, 1219.79, 0.00), (914.89, 1219.79), 0.00
M 0.00000 11 (775.82, 373.24, 0.00), (775.82, 373.24), 0.00
M 0.00000 12 (723.17, 72.05, 0.00), (723.17, 72.05), 0.00
M 0.00000 13 (535.36, 475.44, 0.00), (535.36, 475.44), 0.00
M 0.00000 14 (73.85, 810.00, 0.00), (73.85, 810.00), 0.00
M 0.00000 15 (921.61, 1096.53, 0.00), (921.61, 1096.53), 0.00
M 0.00000 16 (655.98, 1306.98, 0.00), (655.98, 1306.98), 0.00
M 0.00000 17 (24.28, 1008.08, 0.00), (24.28, 1008.08), 0.00
M 0.00000 18 (442.86, 1186.59, 0.00), (442.86, 1186.59), 0.00
M 0.00000 19 (433.84, 1015.91, 0.00), (433.84, 1015.91), 0.00
M 0.00000 20 (832.52, 1016.26, 0.00), (832.52, 1016.26), 0.00
M 0.00000 21 (1030.77, 847.91, 0.00), (1030.77, 847.91), 0.00
M 0.00000 22 (1121.98, 1223.98, 0.00), (1121.98, 1223.98), 0.00
M 0.00000 0 (756.83, 886.21, 0.00), (756.83, 886.21), 13.89
s 0.003091411 _0_ RTR  --- 0 message 32 [0 0 0 0] ------- [0:255 -1:255 32 0] 
s 0.003466411 _0_ MAC  --- 0 message 90 [0 ffffffff 0 800] ------- [0:255 -1:255 32 0] 
r 0.004186795 _9_ MAC  --- 0 message 32 [0 ffffffff 0 800] ------- [0:255 -1:255 32 0] 
r 0.004186912 _20_ MAC  --- 0 message 32 [0 ffffffff 0 800] ------- [0:255 -1:255 32 0] 
r 0.004187301 _15_ MAC  --- 0 message 32 [0 ffffffff 0 800] ------- [0:255 -1:255 32 0] 
r 0.004187333 _21_ MAC  --- 0 message 32 [0 ffffffff 0 800] ------- [0:255 -1:255 32 0] 
r 0.004187571 _19_ MAC  --- 0 message 32 [0 ffffffff 0 800] ------- [0:255 -1:255 32 0] 
r 0.004187599 _1_ MAC  --- 0 message 32 [0 ffffffff 0 800] ------- [0:255 -1:255 32 0] 
r 0.004187641 _10_ MAC  --- 0 message 32 [0 ffffffff 0 800] ------- [0:255 -1:255 32 0] 
r 0.004187692 _8_ MAC  --- 0 message 32 [0 ffffffff 0 800] ------- [0:255 -1:255 32 0] 
r 0.004211795 _9_ RTR  --- 0 message 32 [0 ffffffff 0 800] ------- [0:255 -1:255 32 0] 
r 0.004211912 _20_ RTR  --- 0 message 32 [0 ffffffff 0 800] ------- [0:255 -1:255 32 0] 
r 0.004212301 _15_ RTR  --- 0 message 32 [0 ffffffff 0 800] ------- [0:255 -1:255 32 0] 
r 0.004212333 _21_ RTR  --- 0 message 32 [0 ffffffff 0 800] ------- [0:255 -1:255 32 0] 
r 0.004212571 _19_ RTR  --- 0 message 32 [0 ffffffff 0 800] ------- [0:255 -1:255 32 0] 
r 0.004212599 _1_ RTR  --- 0 message 32 [0 ffffffff 0 800] ------- [0:255 -1:255 32 0] 
r 0.004212641 _10_ RTR  --- 0 message 32 [0 ffffffff 0 800] ------- [0:255 -1:255 32 0] 
r 0.004212692 _8_ RTR  --- 0 message 32 [0 ffffffff 0 800] ------- [0:255 -1:255 32 0] 
s 0.037458776 _2_ RTR  --- 1 message 32 [0 0 0 0] ------- [2:255 -1:255 32 0] 
s 0.037813776 _2_ MAC  --- 1 message 90 [0 ffffffff 2 800] ------- [2:255 -1:255 32 0] 
r 0.038534142 _17_ MAC  --- 1 message 32 [0 ffffffff 2 800] ------- [2:255 -1:255 32 0] 
r 0.038534224 _28_ MAC  --- 1 message 32 [0 ffffffff 2 800] ------- [2:255 -1:255 32 0] 
r 0.038534469 _14_ MAC  --- 1 message 32 [0 ffffffff 2 800] ------- [2:255 -1:255 32 0] 
r 0.038534775 _19_ MAC  --- 1 message 32 [0 ffffffff 2 800] ------- [2:255 -1:255 32 0] 
r 0.038534963 _18_ MAC  --- 1 message 32 [0 ffffffff 2 800] ------- [2:255 -1:255 32 0] 
r 0.038559142 _17_ RTR  --- 1 message 32 [0 ffffffff 2 800] ------- [2:255 -1:255 32 0] 
r 0.038559224 _28_ RTR  --- 1 message 32 [0 ffffffff 2 800] ------- [2:255 -1:255 32 0] 
r 0.038559469 _14_ RTR  --- 1 message 32 [0 ffffffff 2 800] ------- [2:255 -1:255 32 0] 
r 0.038559775 _19_ RTR  --- 1 message 32 [0 ffffffff 2 800] ------- [2:255 -1:255 32 0] 
r 0.038559963 _18_ RTR  --- 1 message 32 [0 ffffffff 2 800] ------- [2:255 -1:255 32 0] 
s 0.087462768 _13_ RTR  --- 2 message 32 [0 0 0 0] ------- [13:255 -1:255 32 0] 
s 0.087757768 _13_ MAC  --- 2 message 90 [0 ffffffff d 800] ------- [13:255 -1:255 32 0] 
r 0.088477993 _5_ MAC  --- 2 message 32 [0 ffffffff d 800] ------- [13:255 -1:255 32 0] 
r 0.088478308 _3_ MAC  --- 2 message 32 [0 ffffffff d 800] ------- [13:255 -1:255 32 0] 
r 0.088478406 _4_ MAC  --- 2 message 32 [0 ffffffff d 800] ------- [13:255 -1:255 32 0] 
r 0.088478407 _6_ MAC  --- 2 message 32 [0 ffffffff d 800] ------- [13:255 -1:255 32 0] 
r 0.088478639 _11_ MAC  --- 2 message 32 [0 ffffffff d 800] ------- [13:255 -1:255 32 0] 
r 0.088478769 _7_ MAC  --- 2 message 32 [0 ffffffff d 800] ------- [13:255 -1:255 32 0] 
r 0.088502993 _5_ RTR  --- 2 message 32 [0 ffffffff d 800] ------- [13:255 -1:255 32 0] 
r 0.088503308 _3_ RTR  --- 2 message 32 [0 ffffffff d 800] ------- [13:255 -1:255 32 0] 
r 0.088503406 _4_ RTR  --- 2 message 32 [0 ffffffff d 800] ------- [13:255 -1:255 32 0] 
r 0.088503407 _6_ RTR  --- 2 message 32 [0 ffffffff d 800] ------- [13:255 -1:255 32 0] 
r 0.088503639 _11_ RTR  --- 2 message 32 [0 ffffffff d 800] ------- [13:255 -1:255 32 0] 
r 0.088503769 _7_ RTR  --- 2 message 32 [0 ffffffff d 800] ------- [13:255 -1:255 32 0] 
s 0.177365656 _3_ RTR  --- 3 message 32 [0 0 0 0] ------- [3:255 -1:255 32 0] 
s 0.177560656 _3_ MAC  --- 3 message 90 [0 ffffffff 3 800] ------- [3:255 -1:255 32 0] 
r 0.178281118 _7_ MAC  --- 3 message 32 [0 ffffffff 3 800] ------- [3:255 -1:255 32 0] 
r 0.178281196 _13_ MAC  --- 3 message 32 [0 ffffffff 3 800] ------- [3:255 -1:255 32 0] 
r 0.178281337 _5_ MAC  --- 3 message 32 [0 ffffffff 3 800] ------- [3:255 -1:255 32 0] 
r 0.178281494 _6_ MAC  --- 3 message 32 [0 ffffffff 3 800] ------- [3:255 -1:255 32 0] 
r 0.178281708 _4_ MAC  --- 3 message 32 [0 ffffffff 3 800] ------- [3:255 -1:255 32 0] 
r 0.178306118 _7_ RTR  --- 3 message 32 [0 ffffffff 3 800] ------- [3:255 -1:255 32 0] 
r 0.178306196 _13_ RTR  --- 3 message 32 [0 ffffffff 3 800] ------- [3:255 -1:255 32 0] 
r 0.178306337 _5_ RTR  --- 3 message 32 [0 ffffffff 3 800] ------- [3:255 -1:255 32 0] 
r 0.178306494 _6_ RTR  --- 3 message 32 [0 ffffffff 3 800] ------- [3:255 -1:255 32 0] 
r 0.178306708 _4_ RTR  --- 3 message 32 [0 ffffffff 3 800] ------- [3:255 -1:255 32 0] 
s 0.191634337 _19_ RTR  --- 4 message 32 [0 0 0 0] ------- [19:255 -1:255 32 0] 
s 0.191889337 _19_ MAC  --- 4 message 90 [0 ffffffff 13 800] ------- [19:255 -1:255 32 0] 
r 0.192609906 _18_ MAC  --- 4 message 32 [0 ffffffff 13 800] ------- [19:255 -1:255 32 0] 
r 0.192610336 _2_ MAC  --- 4 message 32 [0 ffffffff 13 800] ------- [19:255 -1:255 32 0] 
r 0.192610497 _0_ MAC  --- 4 message 32 [0 ffffffff 13 800] ------- [19:255 -1:255 32 0] 
r 0.192610557 _16_ MAC  --- 4 message 32 [0 ffffffff 13 800] ------- [19:255 -1:255 32 0] 
r 0.192610666 _20_ MAC  --- 4 message 32 [0 ffffffff 13 800] ------- [19:255 -1:255 32 0] 
r 0.192634906 _18_ RTR  --- 4 message 32 [0 ffffffff 13 800] ------- [19:255 -1:255 32 0] 
r 0.192635336 _2_ RTR  --- 4 message 32 [0 ffffffff 13 800] ------- [19:255 -1:255 32 0] 
r 0.192635497 _0_ RTR  --- 4 message 32 [0 ffffffff 13 800] ------- [19:255 -1:255 32 0] 
r 0.192635557 _16_ RTR  --- 4 message 32 [0 ffffffff 13 800] ------- [19:255 -1:255 32 0] 
r 0.192635666 _20_ RTR  --- 4 message 32 [0 ffffffff 13 800] ------- [19:255 -1:255 32 0] 
s 0.234603229 _15_ RTR  --- 5 message 32 [0 0 0 0] ------- [15:255 -1:255 32 0] 
s 0.234898229 _15_ MAC  --- 5 message 90 [0 ffffffff f 800] ------- [15:255 -1:255 32 0] 
r 0.235618629 _20_ MAC  --- 5 message 32 [0 ffffffff f 800] ------- [15:255 -1:255 32 0] 
r 0.235618641 _10_ MAC  --- 5 message 32 [0 ffffffff f 800] ------- [15:255 -1:255 32 0] 
r 0.235618948 _9_ MAC  --- 5 message 32 [0 ffffffff f 800] ------- [15:255 -1:255 32 0] 
r 0.235619021 _22_ MAC  --- 5 message 32 [0 ffffffff f 800] ------- [15:255 -1:255 32 0] 
r 0.235619022 _8_ MAC  --- 5 message 32 [0 ffffffff f 800] ------- [15:255 -1:255 32 0] 
r 0.235619120 _0_ MAC  --- 5 message 32 [0 ffffffff f 800] ------- [15:255 -1:255 32 0] 
r 0.235619135 _21_ MAC  --- 5 message 32 [0 ffffffff f 800] ------- [15:255 -1:255 32 0] 
r 0.235619359 _16_ MAC  --- 5 message 32 [0 ffffffff f 800] ------- [15:255 -1:255 32 0] 
r 0.235643629 _20_ RTR  --- 5 message 32 [0 ffffffff f 800] ------- [15:255 -1:255 32 0] 
r 0.235643641 _10_ RTR  --- 5 message 32 [0 ffffffff f 800] ------- [15:255 -1:255 32 0] 
r 0.235643948 _9_ RTR  --- 5 message 32 [0 ffffffff f 800] ------- [15:255 -1:255 32 0] 
r 0.235644021 _22_ RTR  --- 5 message 32 [0 ffffffff f 800] ------- [15:255 -1:255 32 0] 
r 0.235644022 _8_ RTR  --- 5 message 32 [0 ffffffff f 800] ------- [15:255 -1:255 32 0] 
r 0.235644120 _0_ RTR  --- 5 message 32 [0 ffffffff f 800] ------- [15:255 -1:255 32 0] 
r 0.235644135 _21_ RTR  --- 5 message 32 [0 ffffffff f 800] ------- [15:255 -1:255 32 0] 
r 0.235644359 _16_ RTR  --- 5 message 32 [0 ffffffff f 800] ------- [15:255 -1:255 32 0] 
s 0.333839210 _12_ RTR  --- 6 message 32 [0 0 0 0] ------- [12:255 -1:255 32 0] 
s 0.333994210 _12_ MAC  --- 6 message 90 [0 ffffffff c 800] ------- [12:255 -1:255 32 0] 
r 0.334715056 _4_ MAC  --- 6 message 32 [0 ffffffff c 800] ------- [12:255 -1:255 32 0] 
r 0.334715163 _29_ MAC  --- 6 message 32 [0 ffffffff c 800] ------- [12:255 -1:255 32 0] 
r 0.334715229 _11_ MAC  --- 6 message 32 [0 ffffffff c 800] ------- [12:255 -1:255 32 0] 
r 0.334715265 _6_ MAC  --- 6 message 32 [0 ffffffff c 800] ------- [12:255 -1:255 32 0] 
r 0.334715471 _5_ MAC  --- 6 message 32 [0 ffffffff c 800] ------- [12:255 -1:255 32 0] 
r 0.334740056 _4_ RTR  --- 6 message 32 [0 ffffffff c 800] ------- [12:255 -1:255 32 0] 
r 0.334740163 _29_ RTR  --- 6 message 32 [0 ffffffff c 800] ------- [12:255 -1:255 32 0] 
r 0.334740229 _11_ RTR  --- 6 message 32 [0 ffffffff c 800] ------- [12:255 -1:255 32 0] 
r 0.334740265 _6_ RTR  --- 6 message 32 [0 ffffffff c 800] ------- [12:255 -1:255 32 0] 
r 0.334740471 _5_ RTR  --- 6 message 32 [0 ffffffff c 800] ------- [12:255 -1:255 32 0] 
s 0.351472650 _18_ RTR  --- 7 message 32 [0 0 0 0] ------- [18:255 -1:255 32 0] 
s 0.351847650 _18_ MAC  --- 7 message 90 [0 ffffffff 12 800] ------- [18:255 -1:255 32 0] 
r 0.352568220 _19_ MAC  --- 7 message 32 [0 ffffffff 12 800] ------- [18:255 -1:255 32 0] 
r 0.352568466 _16_ MAC  --- 7 message 32 [0 ffffffff 12 800] ------- [18:255 -1:255 32 0] 
r 0.352568838 _2_ MAC  --- 7 message 32 [0 ffffffff 12 800] ------- [18:255 -1:255 32 0] 
r 0.352593220 _19_ RTR  --- 7 message 32 [0 ffffffff 12 800] ------- [18:255 -1:255 32 0] 
r 0.352593466 _16_ RTR  --- 7 message 32 [0 ffffffff 12 800] ------- [18:255 -1:255 32 0] 
r 0.352593838 _2_ RTR  --- 7 message 32 [0 ffffffff 12 800] ------- [18:255 -1:255 32 0] 
s 0.436386259 _29_ RTR  --- 8 message 32 [0 0 0 0] ------- [29:255 -1:255 32 0] 
s 0.436701259 _29_ MAC  --- 8 message 90 [0 ffffffff 1d 800] ------- [29:255 -1:255 32 0] 
r 0.437422213 _12_ MAC  --- 8 message 32 [0 ffffffff 1d 800] ------- [29:255 -1:255 32 0] 
r 0.437447213 _12_ RTR  --- 8 message 32 [0 ffffffff 1d 800] ------- [29:255 -1:255 32 0] 
s 0.470117073 _8_ RTR  --- 9 message 32 [0 0 0 0] ------- [8:255 -1:255 32 0] 
s 0.470652073 _8_ MAC  --- 9 message 90 [0 ffffffff 8 800] ------- [8:255 -1:255 32 0] 
r 0.471372625 _21_ MAC  --- 9 message 32 [0 ffffffff 8 800] ------- [8:255 -1:255 32 0] 
r 0.471372865 _15_ MAC  --- 9 message 32 [0 ffffffff 8 800] ------- [8:255 -1:255 32 0] 
r 0.471372883 _22_ MAC  --- 9 message 32 [0 ffffffff 8 800] ------- [8:255 -1:255 32 0] 
r 0.471372986 _9_ MAC  --- 9 message 32 [0 ffffffff 8 800] ------- [8:255 -1:255 32 0] 
r 0.471373069 _20_ MAC  --- 9 message 32 [0 ffffffff 8 800] ------- [8:255 -1:255 32 0] 
r 0.471373143 _10_ MAC  --- 9 message 32 [0 ffffffff 8 800] ------- [8:255 -1:255 32 0] 
r 0.471373263 _1_ MAC  --- 9 message 32 [0 ffffffff 8 800] ------- [8:255 -1:255 32 0] 
r 0.471373354 _0_ MAC  --- 9 message 32 [0 ffffffff 8 800] ------- [8:255 -1:255 32 0] 
r 0.471397625 _21_ RTR  --- 9 message 32 [0 ffffffff 8 800] ------- [8:255 -1:255 32 0] 
r 0.471397865 _15_ RTR  --- 9 message 32 [0 ffffffff 8 800] ------- [8:255 -1:255 32 0] 
r 0.471397883 _22_ RTR  --- 9 message 32 [0 ffffffff 8 800] ------- [8:255 -1:255 32 0] 
r 0.471397986 _9_ RTR  --- 9 message 32 [0 ffffffff 8 800] ------- [8:255 -1:255 32 0] 
r 0.471398069 _20_ RTR  --- 9 message 32 [0 ffffffff 8 800] ------- [8:255 -1:255 32 0] 
r 0.471398143 _10_ RTR  --- 9 message 32 [0 ffffffff 8 800] ------- [8:255 -1:255 32 0] 
r 0.471398263 _1_ RTR  --- 9 message 32 [0 ffffffff 8 800] ------- [8:255 -1:255 32 0] 
r 0.471398354 _0_ RTR  --- 9 message 32 [0 ffffffff 8 800] ------- [8:255 -1:255 32 0] 
s 0.521504883 _22_ RTR  --- 10 message 32 [0 0 0 0] ------- [22:255 -1:255 32 0] 
s 0.521659883 _22_ MAC  --- 10 message 90 [0 ffffffff 16 800] ------- [22:255 -1:255 32 0] 
r 0.522380574 _10_ MAC  --- 10 message 32 [0 ffffffff 16 800] ------- [22:255 -1:255 32 0] 
r 0.522380675 _15_ MAC  --- 10 message 32 [0 ffffffff 16 800] ------- [22:255 -1:255 32 0] 
r 0.522380694 _8_ MAC  --- 10 message 32 [0 ffffffff 16 800] ------- [22:255 -1:255 32 0] 
r 0.522381071 _20_ MAC  --- 10 message 32 [0 ffffffff 16 800] ------- [22:255 -1:255 32 0] 
r 0.522381173 _21_ MAC  --- 10 message 32 [0 ffffffff 16 800] ------- [22:255 -1:255 32 0] 
r 0.522405574 _10_ RTR  --- 10 message 32 [0 ffffffff 16 800] ------- [22:255 -1:255 32 0] 
r 0.522405675 _15_ RTR  --- 10 message 32 [0 ffffffff 16 800] ------- [22:255 -1:255 32 0] 
r 0.522405694 _8_ RTR  --- 10 message 32 [0 ffffffff 16 800] ------- [22:255 -1:255 32 0] 
r 0.522406071 _20_ RTR  --- 10 message 32 [0 ffffffff 16 800] ------- [22:255 -1:255 32 0] 
r 0.522406173 _21_ RTR  --- 10 message 32 [0 ffffffff 16 800] ------- [22:255 -1:255 32 0] 
s 0.556838879 _28_ AGT  --- 11 cbr 512 [0 0 0 0] ------- [28:0 29:0 32 0] [0] 0 0
r 0.556838879 _28_ RTR  --- 11 cbr 512 [0 0 0 0] ------- [28:0 29:0 32 0] [0] 0 0
s 0.627186592 _10_ RTR  --- 12 message 32 [0 0 0 0] ------- [10:255 -1:255 32 0] 
s 0.627321592 _10_ MAC  --- 12 message 90 [0 ffffffff a 800] ------- [10:255 -1:255 32 0] 
r 0.628042004 _15_ MAC  --- 12 message 32 [0 ffffffff a 800] ------- [10:255 -1:255 32 0] 
r 0.628042283 _22_ MAC  --- 12 message 32 [0 ffffffff a 800] ------- [10:255 -1:255 32 0] 
r 0.628042324 _20_ MAC  --- 12 message 32 [0 ffffffff a 800] ------- [10:255 -1:255 32 0] 
r 0.628042503 _16_ MAC  --- 12 message 32 [0 ffffffff a 800] ------- [10:255 -1:255 32 0] 
r 0.628042662 _8_ MAC  --- 12 message 32 [0 ffffffff a 800] ------- [10:255 -1:255 32 0] 
r 0.628042711 _9_ MAC  --- 12 message 32 [0 ffffffff a 800] ------- [10:255 -1:255 32 0] 
r 0.628042823 _0_ MAC  --- 12 message 32 [0 ffffffff a 800] ------- [10:255 -1:255 32 0] 
r 0.628042890 _21_ MAC  --- 12 message 32 [0 ffffffff a 800] ------- [10:255 -1:255 32 0] 
r 0.628067004 _15_ RTR  --- 12 message 32 [0 ffffffff a 800] ------- [10:255 -1:255 32 0] 
r 0.628067283 _22_ RTR  --- 12 message 32 [0 ffffffff a 800] ------- [10:255 -1:255 32 0] 
r 0.628067324 _20_ RTR  --- 12 message 32 [0 ffffffff a 800] ------- [10:255 -1:255 32 0] 
r 0.628067503 _16_ RTR  --- 12 message 32 [0 ffffffff a 800] ------- [10:255 -1:255 32 0] 
r 0.628067662 _8_ RTR  --- 12 message 32 [0 ffffffff a 800] ------- [10:255 -1:255 32 0] 
r 0.628067711 _9_ RTR  --- 12 message 32 [0 ffffffff a 800] ------- [10:255 -1:255 32 0] 
r 0.628067823 _0_ RTR  --- 12 message 32 [0 ffffffff a 800] ------- [10:255 -1:255 32 0] 
r 0.628067890 _21_ RTR  --- 12 message 32 [0 ffffffff a 800] ------- [10:255 -1:255 32 0] 
s 0.634670006 _6_ RTR  --- 13 message 32 [0 0 0 0] ------- [6:255 -1:255 32 0] 
s 0.634865006 _6_ MAC  --- 13 message 90 [0 ffffffff 6 800] ------- [6:255 -1:255 32 0] 
r 0.635585401 _4_ MAC  --- 13 message 32 [0 ffffffff 6 800] ------- [6:255 -1:255 32 0] 
r 0.635585463 _5_ MAC  --- 13 message 32 [0 ffffffff 6 800] ------- [6:255 -1:255 32 0] 
r 0.635585646 _13_ MAC  --- 13 message 32 [0 ffffffff 6 800] ------- [6:255 -1:255 32 0] 
r 0.635585845 _3_ MAC  --- 13 message 32 [0 ffffffff 6 800] ------- [6:255 -1:255 32 0] 
r 0.635585993 _11_ MAC  --- 13 message 32 [0 ffffffff 6 800] ------- [6:255 -1:255 32 0] 
r 0.635586061 _12_ MAC  --- 13 message 32 [0 ffffffff 6 800] ------- [6:255 -1:255 32 0] 
r 0.635586170 _7_ MAC  --- 13 message 32 [0 ffffffff 6 800] ------- [6:255 -1:255 32 0] 
r 0.635610401 _4_ RTR  --- 13 message 32 [0 ffffffff 6 800] ------- [6:255 -1:255 32 0] 
r 0.635610463 _5_ RTR  --- 13 message 32 [0 ffffffff 6 800] ------- [6:255 -1:255 32 0] 
r 0.635610646 _13_ RTR  --- 13 message 32 [0 ffffffff 6 800] ------- [6:255 -1:255 32 0] 
r 0.635610845 _3_ RTR  --- 13 message 32 [0 ffffffff 6 800] ------- [6:255 -1:255 32 0] 
r 0.635610993 _11_ RTR  --- 13 message 32 [0 ffffffff 6 800] ------- [6:255 -1:255 32 0] 
r 0.635611061 _12_ RTR  --- 13 message 32 [0 ffffffff 6 800] ------- [6:255 -1:255 32 0] 
r 0.635611170 _7_ RTR  --- 13 message 32 [0 ffffffff 6 800] ------- [6:255 -1:255 32 0] 
s 0.705637875 _21_ RTR  --- 14 message 32 [0 0 0 0] ------- [21:255 -1:255 32 0] 
s 0.706012875 _21_ MAC  --- 14 message 90 [0 ffffffff 15 800] ------- [21:255 -1:255 32 0] 
r 0.706733419 _9_ MAC  --- 14 message 32 [0 ffffffff 15 800] ------- [21:255 -1:255 32 0] 
r 0.706733426 _8_ MAC  --- 14 message 32 [0 ffffffff 15 800] ------- [21:255 -1:255 32 0] 
r 0.706733562 _1_ MAC  --- 14 message 32 [0 ffffffff 15 800] ------- [21:255 -1:255 32 0] 
r 0.706733741 _20_ MAC  --- 14 message 32 [0 ffffffff 15 800] ------- [21:255 -1:255 32 0] 
r 0.706733780 _15_ MAC  --- 14 message 32 [0 ffffffff 15 800] ------- [21:255 -1:255 32 0] 
r 0.706733797 _0_ MAC  --- 14 message 32 [0 ffffffff 15 800] ------- [21:255 -1:255 32 0] 
r 0.706734164 _22_ MAC  --- 14 message 32 [0 ffffffff 15 800] ------- [21:255 -1:255 32 0] 
r 0.706734173 _10_ MAC  --- 14 message 32 [0 ffffffff 15 800] ------- [21:255 -1:255 32 0] 
r 0.706758419 _9_ RTR  --- 14 message 32 [0 ffffffff 15 800] ------- [21:255 -1:255 32 0] 
r 0.706758426 _8_ RTR  --- 14 message 32 [0 ffffffff 15 800] ------- [21:255 -1:255 32 0] 
r 0.706758562 _1_ RTR  --- 14 message 32 [0 ffffffff 15 800] ------- [21:255 -1:255 32 0] 
r 0.706758741 _20_ RTR  --- 14 message 32 [0 ffffffff 15 800] ------- [21:255 -1:255 32 0] 
r 0.706758780 _15_ RTR  --- 14 message 32 [0 ffffffff 15 800] ------- [21:255 -1:255 32 0] 
r 0.706758797 _0_ RTR  --- 14 message 32 [0 ffffffff 15 800] ------- [21:255 -1:255 32 0] 
r 0.706759164 _22_ RTR  --- 14 message 32 [0 ffffffff 15 800] ------- [21:255 -1:255 32 0] 
r 0.706759173 _10_ RTR  --- 14 message 32 [0 ffffffff 15 800] ------- [21:255 -1:255 32 0] 
s 0.821435127 _23_ RTR  --- 15 message 32 [0 0 0 0] ------- [23:255 -1:255 32 0] 
s 0.821550127 _23_ MAC  --- 15 message 90 [0 ffffffff 17 800] ------- [23:255 -1:255 32 0] 
r 0.822270127 _24_ MAC  --- 15 message 32 [0 ffffffff 17 800] ------- [23:255 -1:255 32 0] 
r 0.822270127 _25_ MAC  --- 15 message 32 [0 ffffffff 17 800] ------- [23:255 -1:255 32 0] 
r 0.822270127 _26_ MAC  --- 15 message 32 [0 ffffffff 17 800] ------- [23:255 -1:255 32 0] 
r 0.822270127 _27_ MAC  --- 15 message 32 [0 ffffffff 17 800] ------- [23:255 -1:255 32 0] 
r 0.822295127 _24_ RTR  --- 15 message 32 [0 ffffffff 17 800] ------- [23:255 -1:255 32 0] 
r 0.822295127 _25_ RTR  --- 15 message 32 [0 ffffffff 17 800] ------- [23:255 -1:255 32 0] 
r 0.822295127 _26_ RTR  --- 15 message 32 [0 ffffffff 17 800] ------- [23:255 -1:255 32 0] 
r 0.822295127 _27_ RTR  --- 15 message 32 [0 ffffffff 17 800] ------- [23:255 -1:255 32 0] 
s 0.848147771 _17_ RTR  --- 16 message 32 [0 0 0 0] ------- [17:255 -1:255 32 0] 
s 0.848382771 _17_ MAC  --- 16 message 90 [0 ffffffff 11 800] ------- [17:255 -1:255 32 0] 
r 0.849102857 _28_ MAC  --- 16 message 32 [0 ffffffff 11 800] ------- [17:255 -1:255 32 0] 
r 0.849103138 _2_ MAC  --- 16 message 32 [0 ffffffff 11 800] ------- [17:255 -1:255 32 0] 
r 0.849103452 _14_ MAC  --- 16 message 32 [0 ffffffff 11 800] ------- [17:255 -1:255 32 0] 
r 0.849127857 _28_ RTR  --- 16 message 32 [0 ffffffff 11 800] ------- [17:255 -1:255 32 0] 
r 0.849128138 _2_ RTR  --- 16 message 32 [0 ffffffff 11 800] ------- [17:255 -1:255 32 0] 
r 0.849128452 _14_ RTR  --- 16 message 32 [0 ffffffff 11 800] ------- [17:255 -1:255 32 0] 
s 0.882674688 _4_ RTR  --- 17 message 32 [0 0 0 0] ------- [4:255 -1:255 32 0] 
s 0.882909688 _4_ MAC  --- 17 message 90 [0 ffffffff 4 800] ------- [4:255 -1:255 32 0] 
r 0.883630083 _6_ MAC  --- 17 message 32 [0 ffffffff 4 800] ------- [4:255 -1:255 32 0] 
r 0.883630102 _5_ MAC  --- 17 message 32 [0 ffffffff 4 800] ------- [4:255 -1:255 32 0] 
r 0.883630292 _11_ MAC  --- 17 message 32 [0 ffffffff 4 800] ------- [4:255 -1:255 32 0] 
r 0.883630326 _13_ MAC  --- 17 message 32 [0 ffffffff 4 800] ------- [4:255 -1:255 32 0] 
r 0.883630534 _12_ MAC  --- 17 message 32 [0 ffffffff 4 800] ------- [4:255 -1:255 32 0] 
r 0.883630740 _3_ MAC  --- 17 message 32 [0 ffffffff 4 800] ------- [4:255 -1:255 32 0] 
r 0.883655083 _6_ RTR  --- 17 message 32 [0 ffffffff 4 800] ------- [4:255 -1:255 32 0] 
r 0.883655102 _5_ RTR  --- 17 message 32 [0 ffffffff 4 800] ------- [4:255 -1:255 32 0] 
r 0.883655292 _11_ RTR  --- 17 message 32 [0 ffffffff 4 800] ------- [4:255 -1:255 32 0] 
r 0.883655326 _13_ RTR  --- 17 message 32 [0 ffffffff 4 800] ------- [4:255 -1:255 32 0] 
r 0.883655534 _12_ RTR  --- 17 message 32 [0 ffffffff 4 800] ------- [4:255 -1:255 32 0] 
r 0.883655740 _3_ RTR  --- 17 message 32 [0 ffffffff 4 800] ------- [4:255 -1:255 32 0] 
s 0.935449221 _25_ RTR  --- 18 message 32 [0 0 0 0] ------- [25:255 -1:255 32 0] 
s 0.935884221 _25_ MAC  --- 18 message 90 [0 ffffffff 19 800] ------- [25:255 -1:255 32 0] 
r 0.936604221 _24_ MAC  --- 18 message 32 [0 ffffffff 19 800] ------- [25:255 -1:255 32 0] 
r 0.936604221 _23_ MAC  --- 18 message 32 [0 ffffffff 19 800] ------- [25:255 -1:255 32 0] 
r 0.936604221 _26_ MAC  --- 18 message 32 [0 ffffffff 19 800] ------- [25:255 -1:255 32 0] 
r 0.936604221 _27_ MAC  --- 18 message 32 [0 ffffffff 19 800] ------- [25:255 -1:255 32 0] 
r 0.936629221 _24_ RTR  --- 18 message 32 [0 ffffffff 19 800] ------- [25:255 -1:255 32 0] 
r 0.936629221 _23_ RTR  --- 18 message 32 [0 ffffffff 19 800] ------- [25:255 -1:255 32 0] 
r 0.936629221 _26_ RTR  --- 18 message 32 [0 ffffffff 19 800] ------- [25:255 -1:255 32 0] 
r 0.936629221 _27_ RTR  --- 18 message 32 [0 ffffffff 19 800] ------- [25:255 -1:255 32 0] 
s 1.039009780 _24_ RTR  --- 19 message 32 [0 0 0 0] ------- [24:255 -1:255 32 0] 
s 1.039404780 _24_ MAC  --- 19 message 90 [0 ffffffff 18 800] ------- [24:255 -1:255 32 0] 
r 1.040124780 _23_ MAC  --- 19 message 32 [0 ffffffff 18 800] ------- [24:255 -1:255 32 0] 
r 1.040124780 _25_ MAC  --- 19 message 32 [0 ffffffff 18 800] ------- [24:255 -1:255 32 0] 
r 1.040124780 _26_ MAC  --- 19 message 32 [0 ffffffff 18 800] ------- [24:255 -1:255 32 0] 
r 1.040124780 _27_ MAC  --- 19 message 32 [0 ffffffff 18 800] ------- [24:255 -1:255 32 0] 
r 1.040149780 _23_ RTR  --- 19 message 32 [0 ffffffff 18 800] ------- [24:255 -1:255 32 0] 
r 1.040149780 _25_ RTR  --- 19 message 32 [0 ffffffff 18 800] ------- [24:255 -1:255 32 0] 
r 1.040149780 _26_ RTR  --- 19 message 32 [0 ffffffff 18 800] ------- [24:255 -1:255 32 0] 
r 1.040149780 _27_ RTR  --- 19 message 32 [0 ffffffff 18 800] ------- [24:255 -1:255 32 0] 
s 1.119657716 _1_ RTR  --- 20 message 32 [0 0 0 0] ------- [1:255 -1:255 32 0] 
s 1.119832716 _1_ MAC  --- 20 message 90 [0 ffffffff 1 800] ------- [1:255 -1:255 32 0] 
r 1.120553403 _21_ MAC  --- 20 message 32 [0 ffffffff 1 800] ------- [1:255 -1:255 32 0] 
r 1.120553662 _9_ MAC  --- 20 message 32 [0 ffffffff 1 800] ------- [1:255 -1:255 32 0] 
r 1.120553904 _0_ MAC  --- 20 message 32 [0 ffffffff 1 800] ------- [1:255 -1:255 32 0] 
r 1.120553906 _8_ MAC  --- 20 message 32 [0 ffffffff 1 800] ------- [1:255 -1:255 32 0] 
r 1.120553919 _11_ MAC  --- 20 message 32 [0 ffffffff 1 800] ------- [1:255 -1:255 32 0] 
r 1.120578403 _21_ RTR  --- 20 message 32 [0 ffffffff 1 800] ------- [1:255 -1:255 32 0] 
r 1.120578662 _9_ RTR  --- 20 message 32 [0 ffffffff 1 800] ------- [1:255 -1:255 32 0] 
r 1.120578904 _0_ RTR  --- 20 message 32 [0 ffffffff 1 800] ------- [1:255 -1:255 32 0] 
r 1.120578906 _8_ RTR  --- 20 message 32 [0 ffffffff 1 800] ------- [1:255 -1:255 32 0] 
r 1.120578919 _11_ RTR  --- 20 message 32 [0 ffffffff 1 800] ------- [1:255 -1:255 32 0] 
s 1.277890258 _9_ RTR  --- 21 message 32 [0 0 0 0] ------- [9:255 -1:255 32 0] 
s 1.278565258 _9_ MAC  --- 21 message 90 [0 ffffffff 9 800] ------- [9:255 -1:255 32 0] 
r 1.279285642 _0_ MAC  --- 21 message 32 [0 ffffffff 9 800] ------- [9:255 -1:255 32 0] 
r 1.279285710 _20_ MAC  --- 21 message 32 [0 ffffffff 9 800] ------- [9:255 -1:255 32 0] 
r 1.279285803 _21_ MAC  --- 21 message 32 [0 ffffffff 9 800] ------- [9:255 -1:255 32 0] 
r 1.279285977 _15_ MAC  --- 21 message 32 [0 ffffffff 9 800] ------- [9:255 -1:255 32 0] 
r 1.279286172 _8_ MAC  --- 21 message 32 [0 ffffffff 9 800] ------- [9:255 -1:255 32 0] 
r 1.279286205 _1_ MAC  --- 21 message 32 [0 ffffffff 9 800] ------- [9:255 -1:255 32 0] 
r 1.279286378 _10_ MAC  --- 21 message 32 [0 ffffffff 9 800] ------- [9:255 -1:255 32 0] 
r 1.279310642 _0_ RTR  --- 21 message 32 [0 ffffffff 9 800] ------- [9:255 -1:255 32 0] 
r 1.279310710 _20_ RTR  --- 21 message 32 [0 ffffffff 9 800] ------- [9:255 -1:255 32 0] 
r 1.279310803 _21_ RTR  --- 21 message 32 [0 ffffffff 9 800] ------- [9:255 -1:255 32 0] 
r 1.279310977 _15_ RTR  --- 21 message 32 [0 ffffffff 9 800] ------- [9:255 -1:255 32 0] 
r 1.279311172 _8_ RTR  --- 21 message 32 [0 ffffffff 9 800] ------- [9:255 -1:255 32 0] 
r 1.279311205 _1_ RTR  --- 21 message 32 [0 ffffffff 9 800] ------- [9:255 -1:255 32 0] 
r 1.279311378 _10_ RTR  --- 21 message 32 [0 ffffffff 9 800] ------- [9:255 -1:255 32 0] 
s 1.281327089 _14_ RTR  --- 22 message 32 [0 0 0 0] ------- [14:255 -1:255 32 0] 
s 1.281462089 _14_ MAC  --- 22 message 90 [0 ffffffff e 800] ------- [14:255 -1:255 32 0] 
r 1.282182769 _28_ MAC  --- 22 message 32 [0 ffffffff e 800] ------- [14:255 -1:255 32 0] 
r 1.282182770 _17_ MAC  --- 22 message 32 [0 ffffffff e 800] ------- [14:255 -1:255 32 0] 
r 1.282182782 _2_ MAC  --- 22 message 32 [0 ffffffff e 800] ------- [14:255 -1:255 32 0] 
r 1.282183175 _7_ MAC  --- 22 message 32 [0 ffffffff e 800] ------- [14:255 -1:255 32 0] 
r 1.282207769 _28_ RTR  --- 22 message 32 [0 ffffffff e 800] ------- [14:255 -1:255 32 0] 
r 1.282207770 _17_ RTR  --- 22 message 32 [0 ffffffff e 800] ------- [14:255 -1:255 32 0] 
r 1.282207782 _2_ RTR  --- 22 message 32 [0 ffffffff e 800] ------- [14:255 -1:255 32 0] 
r 1.282208175 _7_ RTR  --- 22 message 32 [0 ffffffff e 800] ------- [14:255 -1:255 32 0] 
s 1.388842989 _26_ RTR  --- 23 message 32 [0 0 0 0] ------- [26:255 -1:255 32 0] 
s 1.389297989 _26_ MAC  --- 23 message 90 [0 ffffffff 1a 800] ------- [26:255 -1:255 32 0] 
r 1.390017989 _25_ MAC  --- 23 message 32 [0 ffffffff 1a 800] ------- [26:255 -1:255 32 0] 
r 1.390017989 _24_ MAC  --- 23 message 32 [0 ffffffff 1a 800] ------- [26:255 -1:255 32 0] 
r 1.390017989 _23_ MAC  --- 23 message 32 [0 ffffffff 1a 800] ------- [26:255 -1:255 32 0] 
r 1.390017989 _27_ MAC  --- 23 message 32 [0 ffffffff 1a 800] ------- [26:255 -1:255 32 0] 
r 1.390042989 _25_ RTR  --- 23 message 32 [0 ffffffff 1a 800] ------- [26:255 -1:255 32 0] 
r 1.390042989 _24_ RTR  --- 23 message 32 [0 ffffffff 1a 800] ------- [26:255 -1:255 32 0] 
r 1.390042989 _23_ RTR  --- 23 message 32 [0 ffffffff 1a 800] ------- [26:255 -1:255 32 0] 
r 1.390042989 _27_ RTR  --- 23 message 32 [0 ffffffff 1a 800] ------- [26:255 -1:255 32 0] 
s 1.607278916 _5_ RTR  --- 24 message 32 [0 0 0 0] ------- [5:255 -1:255 32 0] 
s 1.607673916 _5_ MAC  --- 24 message 90 [0 ffffffff 5 800] ------- [5:255 -1:255 32 0] 
r 1.608394141 _13_ MAC  --- 24 message 32 [0 ffffffff 5 800] ------- [5:255 -1:255 32 0] 
r 1.608394330 _4_ MAC  --- 24 message 32 [0 ffffffff 5 800] ------- [5:255 -1:255 32 0] 
r 1.608394373 _6_ MAC  --- 24 message 32 [0 ffffffff 5 800] ------- [5:255 -1:255 32 0] 
r 1.608394597 _3_ MAC  --- 24 message 32 [0 ffffffff 5 800] ------- [5:255 -1:255 32 0] 
r 1.608394663 _11_ MAC  --- 24 message 32 [0 ffffffff 5 800] ------- [5:255 -1:255 32 0] 
r 1.608395037 _7_ MAC  --- 24 message 32 [0 ffffffff 5 800] ------- [5:255 -1:255 32 0] 
r 1.608395176 _12_ MAC  --- 24 message 32 [0 ffffffff 5 800] ------- [5:255 -1:255 32 0] 
r 1.608419141 _13_ RTR  --- 24 message 32 [0 ffffffff 5 800] ------- [5:255 -1:255 32 0] 
r 1.608419330 _4_ RTR  --- 24 message 32 [0 ffffffff 5 800] ------- [5:255 -1:255 32 0] 
r 1.608419373 _6_ RTR  --- 24 message 32 [0 ffffffff 5 800] ------- [5:255 -1:255 32 0] 
r 1.608419597 _3_ RTR  --- 24 message 32 [0 ffffffff 5 800] ------- [5:255 -1:255 32 0] 
r 1.608419663 _11_ RTR  --- 24 message 32 [0 ffffffff 5 800] ------- [5:255 -1:255 32 0] 
r 1.608420037 _7_ RTR  --- 24 message 32 [0 ffffffff 5 800] ------- [5:255 -1:255 32 0] 
r 1.608420176 _12_ RTR  --- 24 message 32 [0 ffffffff 5 800] ------- [5:255 -1:255 32 0] 
s 1.616412514 _20_ RTR  --- 25 message 32 [0 0 0 0] ------- [20:255 -1:255 32 0] 
s 1.616627514 _20_ MAC  --- 25 message 90 [0 ffffffff 14 800] ------- [20:255 -1:255 32 0] 
r 1.617347914 _15_ MAC  --- 25 message 32 [0 ffffffff 14 800] ------- [20:255 -1:255 32 0] 
r 1.617347965 _9_ MAC  --- 25 message 32 [0 ffffffff 14 800] ------- [20:255 -1:255 32 0] 
r 1.617348016 _0_ MAC  --- 25 message 32 [0 ffffffff 14 800] ------- [20:255 -1:255 32 0] 
r 1.617348246 _10_ MAC  --- 25 message 32 [0 ffffffff 14 800] ------- [20:255 -1:255 32 0] 
r 1.617348381 _21_ MAC  --- 25 message 32 [0 ffffffff 14 800] ------- [20:255 -1:255 32 0] 
r 1.617348510 _8_ MAC  --- 25 message 32 [0 ffffffff 14 800] ------- [20:255 -1:255 32 0] 