M 0.0 nn 40 x 1700 y 1700 rp DSDV
M 0.0 sc dsdv-update.tcl cp trafic seed 1.0
M 0.0 prop Propagation/TwoRayGround ant Antenna/OmniAntenna
M 0.00000 0 (330.46, 393.07, 0.00), (330.46, 393.07), 0.00
M 0.00000 1 (69.81, 493.24, 0.00), (69.81, 493.24), 0.00
M 0.00000 2 (942.33, 774.45, 0.00), (942.33, 774.45), 0.00
M 0.00000 3 (691.70, 1435.14, 0.00), (691.70, 1435.14), 0.00
M 0.00000 4 (908.14, 1171.32, 0.00), (908.14, 1171.32), 0.00
M 0.00000 5 (1355.61, 1086.09, 0.00), (1355.61, 1086.09), 0.00
M 0.00000 6 (955.93, 1127.19, 0.00), (955.93, 1127.19), 0.00
M 0.00000 7 (1028.88, 709.33, 0.00), (1028.88, 709.33), 0.00
M 0.00000 8 (1343.59, 904.70, 0.00), (1343.59, 904.70), 0.00
M 0.00000 9 (891.34, 229.40, 0.00), (891.34, 229.40), 0.00
M 0.00000 10 (343.53, 167.04, 0.00), (343.53, 167.04), 0.00
M 0.00000 11 (319.45, 273.87, 0.00), (319.45, 273.87), 0.00
M 0.00000 12 (984.97, 506.75, 0.00), (984.97, 506.75), 0.00
M 0.00000 13 (884.52, 1266.72, 0.00), (884.52, 1266.72), 0.00
M 0.00000 14 (1018.97, 1107.39, 0.00), (1018.97, 1107.39), 0.00
M 0.00000 15 (1291.34, 607.97, 0.00), (1291.34, 607.97), 0.00
M 0.00000 16 (953.11, 751.39, 0.00), (953.11, 751.39), 0.00
M 0.00000 17 (821.06, 1042.23, 0.00), (821.06, 1042.23), 0.00
M 0.00000 18 (865.03, 864.39, 0.00), (865.03, 864.39), 0.00
M 0.00000 19 (515.53, 1201.93, 0.00), (515.53, 1201.93), 0.00
M 0.00000 20 (537.39, 446.76, 0.00), (537.39, 446.76), 0.00
M 0.00000 21 (86.50, 1396.47, 0.00), (86.50, 1396.47), 0.00
M 0.00000 22 (606.84, 767.75, 0.00), (606.84, 767.75), 0.00
M 0.00000 23 (711.44, 1171.26, 0.00), (711.44, 1171.26), 0.00
M 0.00000 24 (695.94, 176.47, 0.00), (695.94, 176.47), 0.00
M 0.00000 25 (59.34, 1401.67, 0.00), (59.34, 1401.67), 0.00
M 0.00000 26 (140.03, 967.19, 0.00), (140.03, 967.19), 0.00
M 0.00000 27 (726.76, 111.06, 0.00), (726.76, 111.06), 0.00
M 0.00000 28 (1248.83, 1100.16, 0.00), (1248.83, 1100.16), 0.00
M 0.00000 29 (539.83, 805.20, 0.00), (539.83, 805.20), 0.00
M 0.00000 30 (23.94, 1004.36, 0.00), (23.94, 1004.36), 0.00
M 0.00000 31 (290.38, 684.62, 0.00), (290.38, 684.62), 0.00
M 0.00000 32 (213.55, 1365.80, 0.00), (213.55, 1365.80), 0.00
M 0.00000 33 (796.77, 217.99, 0.00), (796.77, 217.99), 0.00
M 0.00000 34 (658.38, 1364.25, 0.00), (658.38, 1364.25), 0.00
M 0.00000 35 (684.55, 758.16, 0.00), (684.55, 758.16), 0.00
M 0.00000 0 (330.46, 393.07, 0.00), (330.46, 393.07), 3.84
M 0.00000 1 (69.81, 493.24, 0.00), (69.81, 493.24), 38.89
s 0.010141804 _0_ RTR  --- 0 message 32 [0 0 0 0] ------- [0:255 -1:255 32 0] 
s 0.010796804 _0_ MAC  --- 0 message 90 [0 ffffffff 0 800] ------- [0:255 -1:255 32 0] 
r 0.011517203 _11_ MAC  --- 0 message 32 [0 ffffffff 0 800] ------- [0:255 -1:255 32 0] 
r 0.011517517 _20_ MAC  --- 0 message 32 [0 ffffffff 0 800] ------- [0:255 -1:255 32 0] 
r 0.011517559 _10_ MAC  --- 0 message 32 [0 ffffffff 0 800] ------- [0:255 -1:255 32 0] 
r 0.011517735 _1_ MAC  --- 0 message 32 [0 ffffffff 0 800] ------- [0:255 -1:255 32 0] 
r 0.011517785 _31_ MAC  --- 0 message 32 [0 ffffffff 0 800] ------- [0:255 -1:255 32 0] 
r 0.011542203 _11_ RTR  --- 0 message 32 [0 ffffffff 0 800] ------- [0:255 -1:255 32 0] 
r 0.011542517 _20_ RTR  --- 0 message 32 [0 ffffffff 0 800] ------- [0:255 -1:255 32 0] 
r 0.011542559 _10_ RTR  --- 0 message 32 [0 ffffffff 0 800] ------- [0:255 -1:255 32 0] 
r 0.011542735 _1_ RTR  --- 0 message 32 [0 ffffffff 0 800] ------- [0:255 -1:255 32 0] 
r 0.011542785 _31_ RTR  --- 0 message 32 [0 ffffffff 0 800] ------- [0:255 -1:255 32 0] 
s 0.028517405 _2_ RTR  --- 1 message 32 [0 0 0 0] ------- [2:255 -1:255 32 0] 
s 0.029092405 _2_ MAC  --- 1 message 90 [0 ffffffff 2 800] ------- [2:255 -1:255 32 0] 
r 0.029812490 _16_ MAC  --- 1 message 32 [0 ffffffff 2 800] ------- [2:255 -1:255 32 0] 
r 0.029812766 _7_ MAC  --- 1 message 32 [0 ffffffff 2 800] ------- [2:255 -1:255 32 0] 
r 0.029812800 _18_ MAC  --- 1 message 32 [0 ffffffff 2 800] ------- [2:255 -1:255 32 0] 
r 0.029813266 _35_ MAC  --- 1 message 32 [0 ffffffff 2 800] ------- [2:255 -1:255 32 0] 
r 0.029813308 _12_ MAC  --- 1 message 32 [0 ffffffff 2 800] ------- [2:255 -1:255 32 0] 
r 0.029813385 _17_ MAC  --- 1 message 32 [0 ffffffff 2 800] ------- [2:255 -1:255 32 0] 
r 0.029813523 _22_ MAC  --- 1 message 32 [0 ffffffff 2 800] ------- [2:255 -1:255 32 0] 
r 0.029813544 _14_ MAC  --- 1 message 32 [0 ffffffff 2 800] ------- [2:255 -1:255 32 0] 
r 0.029813581 _6_ MAC  --- 1 message 32 [0 ffffffff 2 800] ------- [2:255 -1:255 32 0] 
r 0.029813694 _15_ MAC  --- 1 message 32 [0 ffffffff 2 800] ------- [2:255 -1:255 32 0] 
r 0.029813732 _4_ MAC  --- 1 message 32 [0 ffffffff 2 800] ------- [2:255 -1:255 32 0] 
r 0.029837490 _16_ RTR  --- 1 message 32 [0 ffffffff 2 800] ------- [2:255 -1:255 32 0] 
r 0.029837766 _7_ RTR  --- 1 message 32 [0 ffffffff 2 800] ------- [2:255 -1:255 32 0] 
r 0.029837800 _18_ RTR  --- 1 message 32 [0 ffffffff 2 800] ------- [2:255 -1:255 32 0] 
r 0.029838266 _35_ RTR  --- 1 message 32 [0 ffffffff 2 800] ------- [2:255 -1:255 32 0] 
r 0.029838308 _12_ RTR  --- 1 message 32 [0 ffffffff 2 800] ------- [2:255 -1:255 32 0] 
r 0.029838385 _17_ RTR  --- 1 message 32 [0 ffffffff 2 800] ------- [2:255 -1:255 32 0] 
r 0.029838523 _22_ RTR  --- 1 message 32 [0 ffffffff 2 800] ------- [2:255 -1:255 32 0] 
r 0.029838544 _14_ RTR  --- 1 message 32 [0 ffffffff 2 800] ------- [2:255 -1:255 32 0] 
r 0.029838581 _6_ RTR  --- 1 message 32 [0 ffffffff 2 800] ------- [2:255 -1:255 32 0] 
r 0.029838694 _15_ RTR  --- 1 message 32 [0 ffffffff 2 800] ------- [2:255 -1:255 32 0] 
r 0.029838732 _4_ RTR  --- 1 message 32 [0 ffffffff 2 800] ------- [2:255 -1:255 32 0] 
s 0.092275354 _13_ RTR  --- 2 message 32 [0 0 0 0] ------- [13:255 -1:255 32 0] 
s 0.092830354 _13_ MAC  --- 2 message 90 [0 ffffffff d 800] ------- [13:255 -1:255 32 0] 
r 0.093550682 _4_ MAC  --- 2 message 32 [0 ffffffff d 800] ------- [13:255 -1:255 32 0] 
r 0.093550877 _6_ MAC  --- 2 message 32 [0 ffffffff d 800] ------- [13:255 -1:255 32 0] 
r 0.093551013 _23_ MAC  --- 2 message 32 [0 ffffffff d 800] ------- [13:255 -1:255 32 0] 
r 0.093551049 _14_ MAC  --- 2 message 32 [0 ffffffff d 800] ------- [13:255 -1:255 32 0] 
r 0.093551132 _17_ MAC  --- 2 message 32 [0 ffffffff d 800] ------- [13:255 -1:255 32 0] 
r 0.093551175 _34_ MAC  --- 2 message 32 [0 ffffffff d 800] ------- [13:255 -1:255 32 0] 
r 0.093551208 _3_ MAC  --- 2 message 32 [0 ffffffff d 800] ------- [13:255 -1:255 32 0] 
r 0.093551603 _19_ MAC  --- 2 message 32 [0 ffffffff d 800] ------- [13:255 -1:255 32 0] 
r 0.093575682 _4_ RTR  --- 2 message 32 [0 ffffffff d 800] ------- [13:255 -1:255 32 0] 
r 0.093575877 _6_ RTR  --- 2 message 32 [0 ffffffff d 800] ------- [13:255 -1:255 32 0] 
r 0.093576013 _23_ RTR  --- 2 message 32 [0 ffffffff d 800] ------- [13:255 -1:255 32 0] 
r 0.093576049 _14_ RTR  --- 2 message 32 [0 ffffffff d 800] ------- [13:255 -1:255 32 0] 
r 0.093576132 _17_ RTR  --- 2 message 32 [0 ffffffff d 800] ------- [13:255 -1:255 32 0] 
r 0.093576175 _34_ RTR  --- 2 message 32 [0 ffffffff d 800] ------- [13:255 -1:255 32 0] 
r 0.093576208 _3_ RTR  --- 2 message 32 [0 ffffffff d 800] ------- [13:255 -1:255 32 0] 
r 0.093576603 _19_ RTR  --- 2 message 32 [0 ffffffff d 800] ------- [13:255 -1:255 32 0] 
s 0.185011899 _3_ RTR  --- 3 message 32 [0 0 0 0] ------- [3:255 -1:255 32 0] 
s 0.185246899 _3_ MAC  --- 3 message 90 [0 ffffffff 3 800] ------- [3:255 -1:255 32 0] 
r 0.185967160 _34_ MAC  --- 3 message 32 [0 ffffffff 3 800] ------- [3:255 -1:255 32 0] 
r 0.185967753 _13_ MAC  --- 3 message 32 [0 ffffffff 3 800] ------- [3:255 -1:255 32 0] 
r 0.185967781 _23_ MAC  --- 3 message 32 [0 ffffffff 3 800] ------- [3:255 -1:255 32 0] 
r 0.185967874 _19_ MAC  --- 3 message 32 [0 ffffffff 3 800] ------- [3:255 -1:255 32 0] 
r 0.185968037 _4_ MAC  --- 3 message 32 [0 ffffffff 3 800] ------- [3:255 -1:255 32 0] 
r 0.185992160 _34_ RTR  --- 3 message 32 [0 ffffffff 3 800] ------- [3:255 -1:255 32 0] 
r 0.185992753 _13_ RTR  --- 3 message 32 [0 ffffffff 3 800] ------- [3:255 -1:255 32 0] 
r 0.185992781 _23_ RTR  --- 3 message 32 [0 ffffffff 3 800] ------- [3:255 -1:255 32 0] 
r 0.185992874 _19_ RTR  --- 3 message 32 [0 ffffffff 3 800] ------- [3:255 -1:255 32 0] 
r 0.185993037 _4_ RTR  --- 3 message 32 [0 ffffffff 3 800] ------- [3:255 -1:255 32 0] 
s 0.188553284 _19_ RTR  --- 4 message 32 [0 0 0 0] ------- [19:255 -1:255 32 0] 
s 0.188628284 _19_ MAC  --- 4 message 90 [0 ffffffff 13 800] ------- [19:255 -1:255 32 0] 
r 0.189348945 _23_ MAC  --- 4 message 32 [0 ffffffff 13 800] ------- [19:255 -1:255 32 0] 
r 0.189349005 _34_ MAC  --- 4 message 32 [0 ffffffff 13 800] ------- [19:255 -1:255 32 0] 
r 0.189349258 _3_ MAC  --- 4 message 32 [0 ffffffff 13 800] ------- [19:255 -1:255 32 0] 
r 0.189349429 _32_ MAC  --- 4 message 32 [0 ffffffff 13 800] ------- [19:255 -1:255 32 0] 
r 0.189349433 _17_ MAC  --- 4 message 32 [0 ffffffff 13 800] ------- [19:255 -1:255 32 0] 
r 0.189349533 _13_ MAC  --- 4 message 32 [0 ffffffff 13 800] ------- [19:255 -1:255 32 0] 
r 0.189349596 _4_ MAC  --- 4 message 32 [0 ffffffff 13 800] ------- [19:255 -1:255 32 0] 
r 0.189349609 _29_ MAC  --- 4 message 32 [0 ffffffff 13 800] ------- [19:255 -1:255 32 0] 
r 0.189373945 _23_ RTR  --- 4 message 32 [0 ffffffff 13 800] ------- [19:255 -1:255 32 0] 
r 0.189374005 _34_ RTR  --- 4 message 32 [0 ffffffff 13 800] ------- [19:255 -1:255 32 0] 
r 0.189374258 _3_ RTR  --- 4 message 32 [0 ffffffff 13 800] ------- [19:255 -1:255 32 0] 
r 0.189374429 _32_ RTR  --- 4 message 32 [0 ffffffff 13 800] ------- [19:255 -1:255 32 0] 
r 0.189374433 _17_ RTR  --- 4 message 32 [0 ffffffff 13 800] ------- [19:255 -1:255 32 0] 
r 0.189374533 _13_ RTR  --- 4 message 32 [0 ffffffff 13 800] ------- [19:255 -1:255 32 0] 
r 0.189374596 _4_ RTR  --- 4 message 32 [0 ffffffff 13 800] ------- [19:255 -1:255 32 0] 
r 0.189374609 _29_ RTR  --- 4 message 32 [0 ffffffff 13 800] ------- [19:255 -1:255 32 0] 
s 0.227865106 _36_ RTR  --- 5 message 32 [0 0 0 0] ------- [36:255 -1:255 32 0] 
s 0.228180106 _36_ MAC  --- 5 message 90 [0 ffffffff 24 800] ------- [36:255 -1:255 32 0] 
r 0.228900106 _37_ MAC  --- 5 message 32 [0 ffffffff 24 800] ------- [36:255 -1:255 32 0] 
r 0.228901379 _10_ MAC  --- 5 message 32 [0 ffffffff 24 800] ------- [36:255 -1:255 32 0] 
r 0.228925106 _37_ RTR  --- 5 message 32 [0 ffffffff 24 800] ------- [36:255 -1:255 32 0] 
r 0.228926379 _10_ RTR  --- 5 message 32 [0 ffffffff 24 800] ------- [36:255 -1:255 32 0] 
s 0.229683837 _15_ RTR  --- 6 message 32 [0 0 0 0] ------- [15:255 -1:255 32 0] 
s 0.230058837 _15_ MAC  --- 6 message 90 [0 ffffffff f 800] ------- [15:255 -1:255 32 0] 
r 0.230779775 _7_ MAC  --- 6 message 32 [0 ffffffff f 800] ------- [15:255 -1:255 32 0] 
r 0.230779842 _8_ MAC  --- 6 message 32 [0 ffffffff f 800] ------- [15:255 -1:255 32 0] 
r 0.230779913 _12_ MAC  --- 6 message 32 [0 ffffffff f 800] ------- [15:255 -1:255 32 0] 
r 0.230780062 _16_ MAC  --- 6 message 32 [0 ffffffff f 800] ------- [15:255 -1:255 32 0] 
r 0.230780126 _2_ MAC  --- 6 message 32 [0 ffffffff f 800] ------- [15:255 -1:255 32 0] 
r 0.230804775 _7_ RTR  --- 6 message 32 [0 ffffffff f 800] ------- [15:255 -1:255 32 0] 
r 0.230804842 _8_ RTR  --- 6 message 32 [0 ffffffff f 800] ------- [15:255 -1:255 32 0] 
r 0.230804913 _12_ RTR  --- 6 message 32 [0 ffffffff f 800] ------- [15:255 -1:255 32 0] 
r 0.230805062 _16_ RTR  --- 6 message 32 [0 ffffffff f 800] ------- [15:255 -1:255 32 0] 
r 0.230805126 _2_ RTR  --- 6 message 32 [0 ffffffff f 800] ------- [15:255 -1:255 32 0] 
s 0.328792147 _12_ RTR  --- 7 message 32 [0 0 0 0] ------- [12:255 -1:255 32 0] 
s 0.329067147 _12_ MAC  --- 7 message 90 [0 ffffffff c 800] ------- [12:255 -1:255 32 0] 
r 0.329787838 _7_ MAC  --- 7 message 32 [0 ffffffff c 800] ------- [12:255 -1:255 32 0] 
r 0.329787970 _16_ MAC  --- 7 message 32 [0 ffffffff c 800] ------- [12:255 -1:255 32 0] 
r 0.329788051 _2_ MAC  --- 7 message 32 [0 ffffffff c 800] ------- [12:255 -1:255 32 0] 
r 0.329788123 _9_ MAC  --- 7 message 32 [0 ffffffff c 800] ------- [12:255 -1:255 32 0] 
r 0.329788223 _15_ MAC  --- 7 message 32 [0 ffffffff c 800] ------- [12:255 -1:255 32 0] 
r 0.329788296 _33_ MAC  --- 7 message 32 [0 ffffffff c 800] ------- [12:255 -1:255 32 0] 
r 0.329788405 _18_ MAC  --- 7 message 32 [0 ffffffff c 800] ------- [12:255 -1:255 32 0] 
r 0.329788453 _35_ MAC  --- 7 message 32 [0 ffffffff c 800] ------- [12:255 -1:255 32 0] 
r 0.329812838 _7_ RTR  --- 7 message 32 [0 ffffffff c 800] ------- [12:255 -1:255 32 0] 
r 0.329812970 _16_ RTR  --- 7 message 32 [0 ffffffff c 800] ------- [12:255 -1:255 32 0] 
r 0.329813051 _2_ RTR  --- 7 message 32 [0 ffffffff c 800] ------- [12:255 -1:255 32 0] 
r 0.329813123 _9_ RTR  --- 7 message 32 [0 ffffffff c 800] ------- [12:255 -1:255 32 0] 
r 0.329813223 _15_ RTR  --- 7 message 32 [0 ffffffff c 800] ------- [12:255 -1:255 32 0] 
r 0.329813296 _33_ RTR  --- 7 message 32 [0 ffffffff c 800] ------- [12:255 -1:255 32 0] 
r 0.329813405 _18_ RTR  --- 7 message 32 [0 ffffffff c 800] ------- [12:255 -1:255 32 0] 
r 0.329813453 _35_ RTR  --- 7 message 32 [0 ffffffff c 800] ------- [12:255 -1:255 32 0] 
s 0.353822708 _18_ RTR  --- 8 message 32 [0 0 0 0] ------- [18:255 -1:255 32 0] 
s 0.354097708 _18_ MAC  --- 8 message 90 [0 ffffffff 12 800] ------- [18:255 -1:255 32 0] 
r 0.354818103 _2_ MAC  --- 8 message 32 [0 ffffffff 12 800] ------- [18:255 -1:255 32 0] 
r 0.354818186 _16_ MAC  --- 8 message 32 [0 ffffffff 12 800] ------- [18:255 -1:255 32 0] 
r 0.354818319 _17_ MAC  --- 8 message 32 [0 ffffffff 12 800] ------- [18:255 -1:255 32 0] 
r 0.354818406 _35_ MAC  --- 8 message 32 [0 ffffffff 12 800] ------- [18:255 -1:255 32 0] 
r 0.354818460 _7_ MAC  --- 8 message 32 [0 ffffffff 12 800] ------- [18:255 -1:255 32 0] 
r 0.354818627 _22_ MAC  --- 8 message 32 [0 ffffffff 12 800] ------- [18:255 -1:255 32 0] 
r 0.354818635 _6_ MAC  --- 8 message 32 [0 ffffffff 12 800] ------- [18:255 -1:255 32 0] 
r 0.354818667 _14_ MAC  --- 8 message 32 [0 ffffffff 12 800] ------- [18:255 -1:255 32 0] 
r 0.354818741 _4_ MAC  --- 8 message 32 [0 ffffffff 12 800] ------- [18:255 -1:255 32 0] 
r 0.354818810 _29_ MAC  --- 8 message 32 [0 ffffffff 12 800] ------- [18:255 -1:255 32 0] 
r 0.354818852 _23_ MAC  --- 8 message 32 [0 ffffffff 12 800] ------- [18:255 -1:255 32 0] 
r 0.354818966 _12_ MAC  --- 8 message 32 [0 ffffffff 12 800] ------- [18:255 -1:255 32 0] 
r 0.354843103 _2_ RTR  --- 8 message 32 [0 ffffffff 12 800] ------- [18:255 -1:255 32 0] 
r 0.354843186 _16_ RTR  --- 8 message 32 [0 ffffffff 12 800] ------- [18:255 -1:255 32 0] 
r 0.354843319 _17_ RTR  --- 8 message 32 [0 ffffffff 12 800] ------- [18:255 -1:255 32 0] 
r 0.354843406 _35_ RTR  --- 8 message 32 [0 ffffffff 12 800] ------- [18:255 -1:255 32 0] 
r 0.354843460 _7_ RTR  --- 8 message 32 [0 ffffffff 12 800] ------- [18:255 -1:255 32 0] 
r 0.354843627 _22_ RTR  --- 8 message 32 [0 ffffffff 12 800] ------- [18:255 -1:255 32 0] 
r 0.354843635 _6_ RTR  --- 8 message 32 [0 ffffffff 12 800] ------- [18:255 -1:255 32 0] 
r 0.354843667 _14_ RTR  --- 8 message 32 [0 ffffffff 12 800] ------- [18:255 -1:255 32 0] 
r 0.354843741 _4_ RTR  --- 8 message 32 [0 ffffffff 12 800] ------- [18:255 -1:255 32 0] 
r 0.354843810 _29_ RTR  --- 8 message 32 [0 ffffffff 12 800] ------- [18:255 -1:255 32 0] 
r 0.354843852 _23_ RTR  --- 8 message 32 [0 ffffffff 12 800] ------- [18:255 -1:255 32 0] 
r 0.354843966 _12_ RTR  --- 8 message 32 [0 ffffffff 12 800] ------- [18:255 -1:255 32 0] 
s 0.382010901 _38_ RTR  --- 9 message 32 [0 0 0 0] ------- [38:255 -1:255 32 0] 
s 0.382205901 _38_ MAC  --- 9 message 90 [0 ffffffff 26 800] ------- [38:255 -1:255 32 0] 
r 0.382925982 _30_ MAC  --- 9 message 32 [0 ffffffff 26 800] ------- [38:255 -1:255 32 0] 
r 0.382926381 _26_ MAC  --- 9 message 32 [0 ffffffff 26 800] ------- [38:255 -1:255 32 0] 
r 0.382950982 _30_ RTR  --- 9 message 32 [0 ffffffff 26 800] ------- [38:255 -1:255 32 0] 
r 0.382951381 _26_ RTR  --- 9 message 32 [0 ffffffff 26 800] ------- [38:255 -1:255 32 0] 
s 0.442339037 _29_ RTR  --- 10 message 32 [0 0 0 0] ------- [29:255 -1:255 32 0] 
s 0.443014037 _29_ MAC  --- 10 message 90 [0 ffffffff 1d 800] ------- [29:255 -1:255 32 0] 
r 0.443734293 _22_ MAC  --- 10 message 32 [0 ffffffff 1d 800] ------- [29:255 -1:255 32 0] 
r 0.443734545 _35_ MAC  --- 10 message 32 [0 ffffffff 1d 800] ------- [29:255 -1:255 32 0] 
r 0.443734961 _31_ MAC  --- 10 message 32 [0 ffffffff 1d 800] ------- [29:255 -1:255 32 0] 
r 0.443735139 _18_ MAC  --- 10 message 32 [0 ffffffff 1d 800] ------- [29:255 -1:255 32 0] 
r 0.443735232 _20_ MAC  --- 10 message 32 [0 ffffffff 1d 800] ------- [29:255 -1:255 32 0] 
r 0.443735263 _17_ MAC  --- 10 message 32 [0 ffffffff 1d 800] ------- [29:255 -1:255 32 0] 
r 0.443735362 _19_ MAC  --- 10 message 32 [0 ffffffff 1d 800] ------- [29:255 -1:255 32 0] 
r 0.443759293 _22_ RTR  --- 10 message 32 [0 ffffffff 1d 800] ------- [29:255 -1:255 32 0] 
r 0.443759545 _35_ RTR  --- 10 message 32 [0 ffffffff 1d 800] ------- [29:255 -1:255 32 0] 
r 0.443759961 _31_ RTR  --- 10 message 32 [0 ffffffff 1d 800] ------- [29:255 -1:255 32 0] 
r 0.443760139 _18_ RTR  --- 10 message 32 [0 ffffffff 1d 800] ------- [29:255 -1:255 32 0] 
r 0.443760232 _20_ RTR  --- 10 message 32 [0 ffffffff 1d 800] ------- [29:255 -1:255 32 0] 
r 0.443760263 _17_ RTR  --- 10 message 32 [0 ffffffff 1d 800] ------- [29:255 -1:255 32 0] 
r 0.443760362 _19_ RTR  --- 10 message 32 [0 ffffffff 1d 800] ------- [29:255 -1:255 32 0] 
s 0.477041254 _8_ RTR  --- 11 message 32 [0 0 0 0] ------- [8:255 -1:255 32 0] 
s 0.477416254 _8_ MAC  --- 11 message 90 [0 ffffffff 8 800] ------- [8:255 -1:255 32 0] 
r 0.478136860 _5_ MAC  --- 11 message 32 [0 ffffffff 8 800] ------- [8:255 -1:255 32 0] 
r 0.478136978 _28_ MAC  --- 11 message 32 [0 ffffffff 8 800] ------- [8:255 -1:255 32 0] 
r 0.478137258 _15_ MAC  --- 11 message 32 [0 ffffffff 8 800] ------- [8:255 -1:255 32 0] 
r 0.478137489 _7_ MAC  --- 11 message 32 [0 ffffffff 8 800] ------- [8:255 -1:255 32 0] 
r 0.478137530 _14_ MAC  --- 11 message 32 [0 ffffffff 8 800] ------- [8:255 -1:255 32 0] 
r 0.478161860 _5_ RTR  --- 11 message 32 [0 ffffffff 8 800] ------- [8:255 -1:255 32 0] 
r 0.478161978 _28_ RTR  --- 11 message 32 [0 ffffffff 8 800] ------- [8:255 -1:255 32 0] 
r 0.478162258 _15_ RTR  --- 11 message 32 [0 ffffffff 8 800] ------- [8:255 -1:255 32 0] 
r 0.478162489 _7_ RTR  --- 11 message 32 [0 ffffffff 8 800] ------- [8:255 -1:255 32 0] 
r 0.478162530 _14_ RTR  --- 11 message 32 [0 ffffffff 8 800] ------- [8:255 -1:255 32 0] 
s 0.487912486 _30_ RTR  --- 12 message 32 [0 0 0 0] ------- [30:255 -1:255 32 0] 
s 0.488567486 _30_ MAC  --- 12 message 90 [0 ffffffff 1e 800] ------- [30:255 -1:255 32 0] 
r 0.489287567 _38_ MAC  --- 12 message 32 [0 ffffffff 1e 800] ------- [30:255 -1:255 32 0] 
r 0.489287892 _26_ MAC  --- 12 message 32 [0 ffffffff 1e 800] ------- [30:255 -1:255 32 0] 
r 0.489288810 _21_ MAC  --- 12 message 32 [0 ffffffff 1e 800] ------- [30:255 -1:255 32 0] 
r 0.489288816 _25_ MAC  --- 12 message 32 [0 ffffffff 1e 800] ------- [30:255 -1:255 32 0] 
r 0.489312567 _38_ RTR  --- 12 message 32 [0 ffffffff 1e 800] ------- [30:255 -1:255 32 0] 
r 0.489312892 _26_ RTR  --- 12 message 32 [0 ffffffff 1e 800] ------- [30:255 -1:255 32 0] 
r 0.489313810 _21_ RTR  --- 12 message 32 [0 ffffffff 1e 800] ------- [30:255 -1:255 32 0] 
r 0.489313816 _25_ RTR  --- 12 message 32 [0 ffffffff 1e 800] ------- [30:255 -1:255 32 0] 
s 0.519498042 _22_ RTR  --- 13 message 32 [0 0 0 0] ------- [22:255 -1:255 32 0] 
s 0.520013042 _22_ MAC  --- 13 message 90 [0 ffffffff 16 800] ------- [22:255 -1:255 32 0] 
r 0.520733298 _29_ MAC  --- 13 message 32 [0 ffffffff 16 800] ------- [22:255 -1:255 32 0] 
r 0.520733303 _35_ MAC  --- 13 message 32 [0 ffffffff 16 800] ------- [22:255 -1:255 32 0] 
r 0.520733961 _18_ MAC  --- 13 message 32 [0 ffffffff 16 800] ------- [22:255 -1:255 32 0] 
r 0.520734133 _31_ MAC  --- 13 message 32 [0 ffffffff 16 800] ------- [22:255 -1:255 32 0] 
r 0.520734137 _20_ MAC  --- 13 message 32 [0 ffffffff 16 800] ------- [22:255 -1:255 32 0] 
r 0.520734160 _2_ MAC  --- 13 message 32 [0 ffffffff 16 800] ------- [22:255 -1:255 32 0] 
r 0.520734197 _16_ MAC  --- 13 message 32 [0 ffffffff 16 800] ------- [22:255 -1:255 32 0] 
r 0.520734203 _17_ MAC  --- 13 message 32 [0 ffffffff 16 800] ------- [22:255 -1:255 32 0] 
r 0.520758298 _29_ RTR  --- 13 message 32 [0 ffffffff 16 800] ------- [22:255 -1:255 32 0] 
r 0.520758303 _35_ RTR  --- 13 message 32 [0 ffffffff 16 800] ------- [22:255 -1:255 32 0] 
r 0.520758961 _18_ RTR  --- 13 message 32 [0 ffffffff 16 800] ------- [22:255 -1:255 32 0] 
r 0.520759133 _31_ RTR  --- 13 message 32 [0 ffffffff 16 800] ------- [22:255 -1:255 32 0] 
r 0.520759137 _20_ RTR  --- 13 message 32 [0 ffffffff 16 800] ------- [22:255 -1:255 32 0] 
r 0.520759160 _2_ RTR  --- 13 message 32 [0 ffffffff 16 800] ------- [22:255 -1:255 32 0] 
r 0.520759197 _16_ RTR  --- 13 message 32 [0 ffffffff 16 800] ------- [22:255 -1:255 32 0] 
r 0.520759203 _17_ RTR  --- 13 message 32 [0 ffffffff 16 800] ------- [22:255 -1:255 32 0] 
s 0.556838879 _38_ AGT  --- 14 cbr 512 [0 0 0 0] ------- [38:0 39:0 32 0] [0] 0 0
r 0.556838879 _38_ RTR  --- 14 cbr 512 [0 0 0 0] ------- [38:0 39:0 32 0] [0] 0 0
s 0.621208005 _10_ RTR  --- 15 message 32 [0 0 0 0] ------- [10:255 -1:255 32 0] 
s 0.621283005 _10_ MAC  --- 15 message 90 [0 ffffffff a 800] ------- [10:255 -1:255 32 0] 
r 0.622003370 _11_ MAC  --- 15 message 32 [0 ffffffff a 800] ------- [10:255 -1:255 32 0] 
r 0.622003760 _0_ MAC  --- 15 message 32 [0 ffffffff a 800] ------- [10:255 -1:255 32 0] 
r 0.622004140 _20_ MAC  --- 15 message 32 [0 ffffffff a 800] ------- [10:255 -1:255 32 0] 
r 0.622004181 _24_ MAC  --- 15 message 32 [0 ffffffff a 800] ------- [10:255 -1:255 32 0] 
r 0.622004279 _37_ MAC  --- 15 message 32 [0 ffffffff a 800] ------- [10:255 -1:255 32 0] 
r 0.622004279 _36_ MAC  --- 15 message 32 [0 ffffffff a 800] ------- [10:255 -1:255 32 0] 
r 0.622004296 _27_ MAC  --- 15 message 32 [0 ffffffff a 800] ------- [10:255 -1:255 32 0] 
r 0.622028370 _11_ RTR  --- 15 message 32 [0 ffffffff a 800] ------- [10:255 -1:255 32 0] 
r 0.622028760 _0_ RTR  --- 15 message 32 [0 ffffffff a 800] ------- [10:255 -1:255 32 0] 
r 0.622029140 _20_ RTR  --- 15 message 32 [0 ffffffff a 800] ------- [10:255 -1:255 32 0] 
r 0.622029181 _24_ RTR  --- 15 message 32 [0 ffffffff a 800] ------- [10:255 -1:255 32 0] 
r 0.622029279 _37_ RTR  --- 15 message 32 [0 ffffffff a 800] ------- [10:255 -1:255 32 0] 
r 0.622029279 _36_ RTR  --- 15 message 32 [0 ffffffff a 800] ------- [10:255 -1:255 32 0] 
r 0.622029296 _27_ RTR  --- 15 message 32 [0 ffffffff a 800] ------- [10:255 -1:255 32 0] 
s 0.634723500 _6_ RTR  --- 16 message 32 [0 0 0 0] ------- [6:255 -1:255 32 0] 
s 0.635218500 _6_ MAC  --- 16 message 90 [0 ffffffff 6 800] ------- [6:255 -1:255 32 0] 
r 0.635938716 _4_ MAC  --- 16 message 32 [0 ffffffff 6 800] ------- [6:255 -1:255 32 0] 
r 0.635938720 _14_ MAC  --- 16 message 32 [0 ffffffff 6 800] ------- [6:255 -1:255 32 0] 
r 0.635939022 _13_ MAC  --- 16 message 32 [0 ffffffff 6 800] ------- [6:255 -1:255 32 0] 
r 0.635939031 _17_ MAC  --- 16 message 32 [0 ffffffff 6 800] ------- [6:255 -1:255 32 0] 
r 0.635939328 _23_ MAC  --- 16 message 32 [0 ffffffff 6 800] ------- [6:255 -1:255 32 0] 
r 0.635939427 _18_ MAC  --- 16 message 32 [0 ffffffff 6 800] ------- [6:255 -1:255 32 0] 
r 0.635939480 _28_ MAC  --- 16 message 32 [0 ffffffff 6 800] ------- [6:255 -1:255 32 0] 
r 0.635939676 _2_ MAC  --- 16 message 32 [0 ffffffff 6 800] ------- [6:255 -1:255 32 0] 
r 0.635939752 _16_ MAC  --- 16 message 32 [0 ffffffff 6 800] ------- [6:255 -1:255 32 0] 
r 0.635939768 _34_ MAC  --- 16 message 32 [0 ffffffff 6 800] ------- [6:255 -1:255 32 0] 
r 0.635963716 _4_ RTR  --- 16 message 32 [0 ffffffff 6 800] ------- [6:255 -1:255 32 0] 
r 0.635963720 _14_ RTR  --- 16 message 32 [0 ffffffff 6 800] ------- [6:255 -1:255 32 0] 
r 0.635964022 _13_ RTR  --- 16 message 32 [0 ffffffff 6 800] ------- [6:255 -1:255 32 0] 
r 0.635964031 _17_ RTR  --- 16 message 32 [0 ffffffff 6 800] ------- [6:255 -1:255 32 0] 
r 0.635964328 _23_ RTR  --- 16 message 32 [0 ffffffff 6 800] ------- [6:255 -1:255 32 0] 
r 0.635964427 _18_ RTR  --- 16 message 32 [0 ffffffff 6 800] ------- [6:255 -1:255 32 0] 
r 0.635964480 _28_ RTR  --- 16 message 32 [0 ffffffff 6 800] ------- [6:255 -1:255 32 0] 
r 0.635964676 _2_ RTR  --- 16 message 32 [0 ffffffff 6 800] ------- [6:255 -1:255 32 0] 
r 0.635964752 _16_ RTR  --- 16 message 32 [0 ffffffff 6 800] ------- [6:255 -1:255 32 0] 
r 0.635964768 _34_ RTR  --- 16 message 32 [0 ffffffff 6 800] ------- [6:255 -1:255 32 0] 
s 0.705034406 _21_ RTR  --- 17 message 32 [0 0 0 0] ------- [21:255 -1:255 32 0] 
s 0.705129406 _21_ MAC  --- 17 message 90 [0 ffffffff 15 800] ------- [21:255 -1:255 32 0] 
r 0.705849498 _25_ MAC  --- 17 message 32 [0 ffffffff 15 800] ------- [21:255 -1:255 32 0] 
r 0.705849841 _32_ MAC  --- 17 message 32 [0 ffffffff 15 800] ------- [21:255 -1:255 32 0] 
r 0.705850729 _30_ MAC  --- 17 message 32 [0 ffffffff 15 800] ------- [21:255 -1:255 32 0] 
r 0.705874498 _25_ RTR  --- 17 message 32 [0 ffffffff 15 800] ------- [21:255 -1:255 32 0] 
r 0.705874841 _32_ RTR  --- 17 message 32 [0 ffffffff 15 800] ------- [21:255 -1:255 32 0] 
r 0.705875729 _30_ RTR  --- 17 message 32 [0 ffffffff 15 800] ------- [21:255 -1:255 32 0] 
s 0.811198126 _35_ RTR  --- 19 message 32 [0 0 0 0] ------- [35:255 -1:255 32 0] 
s 0.811873126 _35_ MAC  --- 19 message 90 [0 ffffffff 23 800] ------- [35:255 -1:255 32 0] 
r 0.812593387 _22_ MAC  --- 19 message 32 [0 ffffffff 23 800] ------- [35:255 -1:255 32 0] 
r 0.812593633 _29_ MAC  --- 19 message 32 [0 ffffffff 23 800] ------- [35:255 -1:255 32 0] 
r 0.812593824 _18_ MAC  --- 19 message 32 [0 ffffffff 23 800] ------- [35:255 -1:255 32 0] 
r 0.812593987 _2_ MAC  --- 19 message 32 [0 ffffffff 23 800] ------- [35:255 -1:255 32 0] 
r 0.812594022 _16_ MAC  --- 19 message 32 [0 ffffffff 23 800] ------- [35:255 -1:255 32 0] 
r 0.812594177 _17_ MAC  --- 19 message 32 [0 ffffffff 23 800] ------- [35:255 -1:255 32 0] 
r 0.812594274 _20_ MAC  --- 19 message 32 [0 ffffffff 23 800] ------- [35:255 -1:255 32 0] 
r 0.812594285 _7_ MAC  --- 19 message 32 [0 ffffffff 23 800] ------- [35:255 -1:255 32 0] 
r 0.812594432 _12_ MAC  --- 19 message 32 [0 ffffffff 23 800] ------- [35:255 -1:255 32 0] 
r 0.812618387 _22_ RTR  --- 19 message 32 [0 ffffffff 23 800] ------- [35:255 -1:255 32 0] 
r 0.812618633 _29_ RTR  --- 19 message 32 [0 ffffffff 23 800] ------- [35:255 -1:255 32 0] 
r 0.812618824 _18_ RTR  --- 19 message 32 [0 ffffffff 23 800] ------- [35:255 -1:255 32 0] 
r 0.812618987 _2_ RTR  --- 19 message 32 [0 ffffffff 23 800] ------- [35:255 -1:255 32 0] 
r 0.812619022 _16_ RTR  --- 19 message 32 [0 ffffffff 23 800] ------- [35:255 -1:255 32 0] 
r 0.812619177 _17_ RTR  --- 19 message 32 [0 ffffffff 23 800] ------- [35:255 -1:255 32 0] 
r 0.812619274 _20_ RTR  --- 19 message 32 [0 ffffffff 23 800] ------- [35:255 -1:255 32 0] 
r 0.812619285 _7_ RTR  --- 19 message 32 [0 ffffffff 23 800] ------- [35:255 -1:255 32 0] 
r 0.812619432 _12_ RTR  --- 19 message 32 [0 ffffffff 23 800] ------- [35:255 -1:255 32 0] 
s 0.812927671 _37_ RTR  --- 18 message 32 [0 0 0 0] ------- [37:255 -1:255 32 0] 
s 0.813022671 _37_ MAC  --- 18 message 90 [0 ffffffff 25 800] ------- [37:255 -1:255 32 0] 
r 0.813742671 _36_ MAC  --- 18 message 32 [0 ffffffff 25 800] ------- [37:255 -1:255 32 0] 
r 0.813743944 _10_ MAC  --- 18 message 32 [0 ffffffff 25 800] ------- [37:255 -1:255 32 0] 
r 0.813767671 _36_ RTR  --- 18 message 32 [0 ffffffff 25 800] ------- [37:255 -1:255 32 0] 
r 0.813768944 _10_ RTR  --- 18 message 32 [0 ffffffff 25 800] ------- [37:255 -1:255 32 0] 
s 0.819512872 _23_ RTR  --- 20 message 32 [0 0 0 0] ------- [23:255 -1:255 32 0] 
s 0.819607872 _23_ MAC  --- 20 message 90 [0 ffffffff 17 800] ------- [23:255 -1:255 32 0] 
r 0.820328437 _17_ MAC  --- 20 message 32 [0 ffffffff 17 800] ------- [23:255 -1:255 32 0] 
r 0.820328528 _4_ MAC  --- 20 message 32 [0 ffffffff 17 800] ------- [23:255 -1:255 32 0] 
r 0.820328531 _13_ MAC  --- 20 message 32 [0 ffffffff 17 800] ------- [23:255 -1:255 32 0] 
r 0.820328533 _19_ MAC  --- 20 message 32 [0 ffffffff 17 800] ------- [23:255 -1:255 32 0] 
r 0.820328540 _34_ MAC  --- 20 message 32 [0 ffffffff 17 800] ------- [23:255 -1:255 32 0] 
r 0.820328700 _6_ MAC  --- 20 message 32 [0 ffffffff 17 800] ------- [23:255 -1:255 32 0] 
r 0.820328754 _3_ MAC  --- 20 message 32 [0 ffffffff 17 800] ------- [23:255 -1:255 32 0] 
r 0.820328919 _14_ MAC  --- 20 message 32 [0 ffffffff 17 800] ------- [23:255 -1:255 32 0] 
r 0.820329016 _18_ MAC  --- 20 message 32 [0 ffffffff 17 800] ------- [23:255 -1:255 32 0] 
r 0.820353437 _17_ RTR  --- 20 message 32 [0 ffffffff 17 800] ------- [23:255 -1:255 32 0] 
r 0.820353528 _4_ RTR  --- 20 message 32 [0 ffffffff 17 800] ------- [23:255 -1:255 32 0] 
r 0.820353531 _13_ RTR  --- 20 message 32 [0 ffffffff 17 800] ------- [23:255 -1:255 32 0] 
r 0.820353533 _19_ RTR  --- 20 message 32 [0 ffffffff 17 800] ------- [23:255 -1:255 32 0] 
r 0.820353540 _34_ RTR  --- 20 message 32 [0 ffffffff 17 800] ------- [23:255 -1:255 32 0] 
r 0.820353700 _6_ RTR  --- 20 message 32 [0 ffffffff 17 800] ------- [23:255 -1:255 32 0] 
r 0.820353754 _3_ RTR  --- 20 message 32 [0 ffffffff 17 800] ------- [23:255 -1:255 32 0] 
r 0.820353919 _14_ RTR  --- 20 message 32 [0 ffffffff 17 800] ------- [23:255 -1:255 32 0] 
r 0.820354016 _18_ RTR  --- 20 message 32 [0 ffffffff 17 800] ------- [23:255 -1:255 32 0] 
s 0.854670008 _17_ RTR  --- 21 message 32 [0 0 0 0] ------- [17:255 -1:255 32 0] 
s 0.855125008 _17_ MAC  --- 21 message 90 [0 ffffffff 11 800] ------- [17:255 -1:255 32 0] 
r 0.855845527 _4_ MAC  --- 21 message 32 [0 ffffffff 11 800] ------- [17:255 -1:255 32 0] 
r 0.855845539 _6_ MAC  --- 21 message 32 [0 ffffffff 11 800] ------- [17:255 -1:255 32 0] 