M 0.00000 0 (374.49, 123.35, 0.00), (374.49, 123.35), 11.42
s 0.003091411 _0_ RTR  --- 0 message 32 [0 0 0 0] ------- [0:255 -1:255 32 0] 
r 0.004211483 _20_ RTR  --- 0 message 32 [0 ffffffff 0 800] ------- [0:255 -1:255 32 0] 
r 0.004211601 _15_ RTR  --- 0 message 32 [0 ffffffff 0 800] ------- [0:255 -1:255 32 0] 
r 0.004211617 _4_ RTR  --- 0 message 32 [0 ffffffff 0 800] ------- [0:255 -1:255 32 0] 
r 0.004211723 _24_ RTR  --- 0 message 32 [0 ffffffff 0 800] ------- [0:255 -1:255 32 0] 
r 0.004211812 _27_ RTR  --- 0 message 32 [0 ffffffff 0 800] ------- [0:255 -1:255 32 0] 
r 0.004211834 _7_ RTR  --- 0 message 32 [0 ffffffff 0 800] ------- [0:255 -1:255 32 0] 
r 0.004211838 _3_ RTR  --- 0 message 32 [0 ffffffff 0 800] ------- [0:255 -1:255 32 0] 
r 0.004211924 _6_ RTR  --- 0 message 32 [0 ffffffff 0 800] ------- [0:255 -1:255 32 0] 
r 0.004211955 _16_ RTR  --- 0 message 32 [0 ffffffff 0 800] ------- [0:255 -1:255 32 0] 
r 0.004211962 _23_ RTR  --- 0 message 32 [0 ffffffff 0 800] ------- [0:255 -1:255 32 0] 
r 0.004212041 _12_ RTR  --- 0 message 32 [0 ffffffff 0 800] ------- [0:255 -1:255 32 0] 
r 0.004212041 _26_ RTR  --- 0 message 32 [0 ffffffff 0 800] ------- [0:255 -1:255 32 0] 
r 0.004212092 _28_ RTR  --- 0 message 32 [0 ffffffff 0 800] ------- [0:255 -1:255 32 0] 
r 0.004212096 _11_ RTR  --- 0 message 32 [0 ffffffff 0 800] ------- [0:255 -1:255 32 0] 
r 0.004212121 _9_ RTR  --- 0 message 32 [0 ffffffff 0 800] ------- [0:255 -1:255 32 0] 
r 0.004212128 _29_ RTR  --- 0 message 32 [0 ffffffff 0 800] ------- [0:255 -1:255 32 0] 
r 0.004212168 _13_ RTR  --- 0 message 32 [0 ffffffff 0 800] ------- [0:255 -1:255 32 0] 
r 0.004212172 _8_ RTR  --- 0 message 32 [0 ffffffff 0 800] ------- [0:255 -1:255 32 0] 
r 0.004212183 _21_ RTR  --- 0 message 32 [0 ffffffff 0 800] ------- [0:255 -1:255 32 0] 
s 0.037458776 _2_ RTR  --- 1 message 32 [0 0 0 0] ------- [2:255 -1:255 32 0] 
r 0.038558856 _18_ RTR  --- 1 message 32 [0 ffffffff 2 800] ------- [2:255 -1:255 32 0] 
r 0.038558866 _19_ RTR  --- 1 message 32 [0 ffffffff 2 800] ------- [2:255 -1:255 32 0] 
r 0.038558999 _17_ RTR  --- 1 message 32 [0 ffffffff 2 800] ------- [2:255 -1:255 32 0] 
r 0.038559038 _10_ RTR  --- 1 message 32 [0 ffffffff 2 800] ------- [2:255 -1:255 32 0] 
r 0.038559156 _1_ RTR  --- 1 message 32 [0 ffffffff 2 800] ------- [2:255 -1:255 32 0] 
r 0.038559156 _5_ RTR  --- 1 message 32 [0 ffffffff 2 800] ------- [2:255 -1:255 32 0] 
r 0.038559303 _29_ RTR  --- 1 message 32 [0 ffffffff 2 800] ------- [2:255 -1:255 32 0] 
r 0.038559462 _26_ RTR  --- 1 message 32 [0 ffffffff 2 800] ------- [2:255 -1:255 32 0] 
r 0.038559480 _12_ RTR  --- 1 message 32 [0 ffffffff 2 800] ------- [2:255 -1:255 32 0] 
r 0.038559523 _28_ RTR  --- 1 message 32 [0 ffffffff 2 800] ------- [2:255 -1:255 32 0] 
s 0.087462768 _13_ RTR  --- 2 message 32 [0 0 0 0] ------- [13:255 -1:255 32 0] 
r 0.088502819 _9_ RTR  --- 2 message 32 [0 ffffffff d 800] ------- [13:255 -1:255 32 0] 
r 0.088502847 _11_ RTR  --- 2 message 32 [0 ffffffff d 800] ------- [13:255 -1:255 32 0] 
r 0.088502943 _21_ RTR  --- 2 message 32 [0 ffffffff d 800] ------- [13:255 -1:255 32 0] 
r 0.088503015 _14_ RTR  --- 2 message 32 [0 ffffffff d 800] ------- [13:255 -1:255 32 0] 
r 0.088503172 _25_ RTR  --- 2 message 32 [0 ffffffff d 800] ------- [13:255 -1:255 32 0] 
r 0.088503235 _8_ RTR  --- 2 message 32 [0 ffffffff d 800] ------- [13:255 -1:255 32 0] 
r 0.088503447 _22_ RTR  --- 2 message 32 [0 ffffffff d 800] ------- [13:255 -1:255 32 0] 
r 0.088503450 _15_ RTR  --- 2 message 32 [0 ffffffff d 800] ------- [13:255 -1:255 32 0] 
r 0.088503490 _24_ RTR  --- 2 message 32 [0 ffffffff d 800] ------- [13:255 -1:255 32 0] 
r 0.088503512 _7_ RTR  --- 2 message 32 [0 ffffffff d 800] ------- [13:255 -1:255 32 0] 
r 0.088503525 _0_ RTR  --- 2 message 32 [0 ffffffff d 800] ------- [13:255 -1:255 32 0] 
r 0.088503597 _20_ RTR  --- 2 message 32 [0 ffffffff d 800] ------- [13:255 -1:255 32 0] 
s 0.177365656 _3_ RTR  --- 3 message 32 [0 0 0 0] ------- [3:255 -1:255 32 0] 
r 0.178305914 _16_ RTR  --- 3 message 32 [0 ffffffff 3 800] ------- [3:255 -1:255 32 0] 
r 0.178306062 _20_ RTR  --- 3 message 32 [0 ffffffff 3 800] ------- [3:255 -1:255 32 0] 
r 0.178306083 _0_ RTR  --- 3 message 32 [0 ffffffff 3 800] ------- [3:255 -1:255 32 0] 
r 0.178306088 _4_ RTR  --- 3 message 32 [0 ffffffff 3 800] ------- [3:255 -1:255 32 0] 
r 0.178306174 _27_ RTR  --- 3 message 32 [0 ffffffff 3 800] ------- [3:255 -1:255 32 0] 
r 0.178306268 _15_ RTR  --- 3 message 32 [0 ffffffff 3 800] ------- [3:255 -1:255 32 0] 
r 0.178306378 _8_ RTR  --- 3 message 32 [0 ffffffff 3 800] ------- [3:255 -1:255 32 0] 
r 0.178306395 _24_ RTR  --- 3 message 32 [0 ffffffff 3 800] ------- [3:255 -1:255 32 0] 
r 0.178306400 _29_ RTR  --- 3 message 32 [0 ffffffff 3 800] ------- [3:255 -1:255 32 0] 
r 0.178306470 _26_ RTR  --- 3 message 32 [0 ffffffff 3 800] ------- [3:255 -1:255 32 0] 
r 0.178306483 _12_ RTR  --- 3 message 32 [0 ffffffff 3 800] ------- [3:255 -1:255 32 0] 
s 0.191634337 _19_ RTR  --- 4 message 32 [0 0 0 0] ------- [19:255 -1:255 32 0] 
r 0.192634427 _2_ RTR  --- 4 message 32 [0 ffffffff 13 800] ------- [19:255 -1:255 32 0] 
r 0.192634438 _18_ RTR  --- 4 message 32 [0 ffffffff 13 800] ------- [19:255 -1:255 32 0] 
r 0.192634472 _17_ RTR  --- 4 message 32 [0 ffffffff 13 800] ------- [19:255 -1:255 32 0] 
r 0.192634587 _10_ RTR  --- 4 message 32 [0 ffffffff 13 800] ------- [19:255 -1:255 32 0] 
r 0.192634746 _5_ RTR  --- 4 message 32 [0 ffffffff 13 800] ------- [19:255 -1:255 32 0] 
r 0.192634746 _1_ RTR  --- 4 message 32 [0 ffffffff 13 800] ------- [19:255 -1:255 32 0] 
r 0.192634777 _29_ RTR  --- 4 message 32 [0 ffffffff 13 800] ------- [19:255 -1:255 32 0] 
r 0.192634951 _26_ RTR  --- 4 message 32 [0 ffffffff 13 800] ------- [19:255 -1:255 32 0] 
r 0.192634971 _12_ RTR  --- 4 message 32 [0 ffffffff 13 800] ------- [19:255 -1:255 32 0] 
r 0.192635022 _28_ RTR  --- 4 message 32 [0 ffffffff 13 800] ------- [19:255 -1:255 32 0] 
r 0.192635092 _27_ RTR  --- 4 message 32 [0 ffffffff 13 800] ------- [19:255 -1:255 32 0] 
s 0.234603229 _15_ RTR  --- 5 message 32 [0 0 0 0] ------- [15:255 -1:255 32 0] 
r 0.235643362 _24_ RTR  --- 5 message 32 [0 ffffffff f 800] ------- [15:255 -1:255 32 0] 
r 0.235643420 _0_ RTR  --- 5 message 32 [0 ffffffff f 800] ------- [15:255 -1:255 32 0] 
r 0.235643470 _7_ RTR  --- 5 message 32 [0 ffffffff f 800] ------- [15:255 -1:255 32 0] 
r 0.235643470 _20_ RTR  --- 5 message 32 [0 ffffffff f 800] ------- [15:255 -1:255 32 0] 
r 0.235643570 _4_ RTR  --- 5 message 32 [0 ffffffff f 800] ------- [15:255 -1:255 32 0] 
r 0.235643699 _6_ RTR  --- 5 message 32 [0 ffffffff f 800] ------- [15:255 -1:255 32 0] 
r 0.235643749 _27_ RTR  --- 5 message 32 [0 ffffffff f 800] ------- [15:255 -1:255 32 0] 
r 0.235643751 _23_ RTR  --- 5 message 32 [0 ffffffff f 800] ------- [15:255 -1:255 32 0] 
r 0.235643841 _3_ RTR  --- 5 message 32 [0 ffffffff f 800] ------- [15:255 -1:255 32 0] 
r 0.235643850 _11_ RTR  --- 5 message 32 [0 ffffffff f 800] ------- [15:255 -1:255 32 0] 
r 0.235643871 _9_ RTR  --- 5 message 32 [0 ffffffff f 800] ------- [15:255 -1:255 32 0] 
r 0.235643902 _12_ RTR  --- 5 message 32 [0 ffffffff f 800] ------- [15:255 -1:255 32 0] 
r 0.235643910 _26_ RTR  --- 5 message 32 [0 ffffffff f 800] ------- [15:255 -1:255 32 0] 
r 0.235643912 _13_ RTR  --- 5 message 32 [0 ffffffff f 800] ------- [15:255 -1:255 32 0] 
r 0.235643924 _28_ RTR  --- 5 message 32 [0 ffffffff f 800] ------- [15:255 -1:255 32 0] 
r 0.235643961 _16_ RTR  --- 5 message 32 [0 ffffffff f 800] ------- [15:255 -1:255 32 0] 
r 0.235643969 _21_ RTR  --- 5 message 32 [0 ffffffff f 800] ------- [15:255 -1:255 32 0] 
r 0.235644032 _8_ RTR  --- 5 message 32 [0 ffffffff f 800] ------- [15:255 -1:255 32 0] 
r 0.235644056 _29_ RTR  --- 5 message 32 [0 ffffffff f 800] ------- [15:255 -1:255 32 0] 
s 0.333839210 _12_ RTR  --- 6 message 32 [0 0 0 0] ------- [12:255 -1:255 32 0] 
r 0.334739237 _26_ RTR  --- 6 message 32 [0 ffffffff c 800] ------- [12:255 -1:255 32 0] 
r 0.334739319 _28_ RTR  --- 6 message 32 [0 ffffffff c 800] ------- [12:255 -1:255 32 0] 
r 0.334739463 _23_ RTR  --- 6 message 32 [0 ffffffff c 800] ------- [12:255 -1:255 32 0] 
r 0.334739511 _29_ RTR  --- 6 message 32 [0 ffffffff c 800] ------- [12:255 -1:255 32 0] 
r 0.334739512 _6_ RTR  --- 6 message 32 [0 ffffffff c 800] ------- [12:255 -1:255 32 0] 
r 0.334739519 _27_ RTR  --- 6 message 32 [0 ffffffff c 800] ------- [12:255 -1:255 32 0] 
r 0.334739659 _4_ RTR  --- 6 message 32 [0 ffffffff c 800] ------- [12:255 -1:255 32 0] 
r 0.334739723 _17_ RTR  --- 6 message 32 [0 ffffffff c 800] ------- [12:255 -1:255 32 0] 
r 0.334739780 _20_ RTR  --- 6 message 32 [0 ffffffff c 800] ------- [12:255 -1:255 32 0] 
r 0.334739840 _0_ RTR  --- 6 message 32 [0 ffffffff c 800] ------- [12:255 -1:255 32 0] 
r 0.334739844 _19_ RTR  --- 6 message 32 [0 ffffffff c 800] ------- [12:255 -1:255 32 0] 
r 0.334739859 _5_ RTR  --- 6 message 32 [0 ffffffff c 800] ------- [12:255 -1:255 32 0] 
r 0.334739860 _1_ RTR  --- 6 message 32 [0 ffffffff c 800] ------- [12:255 -1:255 32 0] 
r 0.334739878 _24_ RTR  --- 6 message 32 [0 ffffffff c 800] ------- [12:255 -1:255 32 0] 
r 0.334739882 _15_ RTR  --- 6 message 32 [0 ffffffff c 800] ------- [12:255 -1:255 32 0] 
r 0.334739914 _2_ RTR  --- 6 message 32 [0 ffffffff c 800] ------- [12:255 -1:255 32 0] 
r 0.334739918 _16_ RTR  --- 6 message 32 [0 ffffffff c 800] ------- [12:255 -1:255 32 0] 
r 0.334739922 _7_ RTR  --- 6 message 32 [0 ffffffff c 800] ------- [12:255 -1:255 32 0] 
r 0.334739944 _18_ RTR  --- 6 message 32 [0 ffffffff c 800] ------- [12:255 -1:255 32 0] 
r 0.334740037 _10_ RTR  --- 6 message 32 [0 ffffffff c 800] ------- [12:255 -1:255 32 0] 
r 0.334740037 _3_ RTR  --- 6 message 32 [0 ffffffff c 800] ------- [12:255 -1:255 32 0] 
s 0.351472650 _18_ RTR  --- 7 message 32 [0 0 0 0] ------- [18:255 -1:255 32 0] 
r 0.352592730 _2_ RTR  --- 7 message 32 [0 ffffffff 12 800] ------- [18:255 -1:255 32 0] 
r 0.352592751 _19_ RTR  --- 7 message 32 [0 ffffffff 12 800] ------- [18:255 -1:255 32 0] 
r 0.352592832 _10_ RTR  --- 7 message 32 [0 ffffffff 12 800] ------- [18:255 -1:255 32 0] 
r 0.352592878 _17_ RTR  --- 7 message 32 [0 ffffffff 12 800] ------- [18:255 -1:255 32 0] 
r 0.352593110 _1_ RTR  --- 7 message 32 [0 ffffffff 12 800] ------- [18:255 -1:255 32 0] 
r 0.352593110 _5_ RTR  --- 7 message 32 [0 ffffffff 12 800] ------- [18:255 -1:255 32 0] 
r 0.352593178 _29_ RTR  --- 7 message 32 [0 ffffffff 12 800] ------- [18:255 -1:255 32 0] 
r 0.352593364 _26_ RTR  --- 7 message 32 [0 ffffffff 12 800] ------- [18:255 -1:255 32 0] 
r 0.352593384 _12_ RTR  --- 7 message 32 [0 ffffffff 12 800] ------- [18:255 -1:255 32 0] 
r 0.352593436 _28_ RTR  --- 7 message 32 [0 ffffffff 12 800] ------- [18:255 -1:255 32 0] 
s 0.436386259 _29_ RTR  --- 8 message 32 [0 0 0 0] ------- [29:255 -1:255 32 0] 
r 0.437446533 _26_ RTR  --- 8 message 32 [0 ffffffff 1d 800] ------- [29:255 -1:255 32 0] 
r 0.437446560 _12_ RTR  --- 8 message 32 [0 ffffffff 1d 800] ------- [29:255 -1:255 32 0] 
r 0.437446564 _17_ RTR  --- 8 message 32 [0 ffffffff 1d 800] ------- [29:255 -1:255 32 0] 
r 0.437446575 _27_ RTR  --- 8 message 32 [0 ffffffff 1d 800] ------- [29:255 -1:255 32 0] 
r 0.437446659 _28_ RTR  --- 8 message 32 [0 ffffffff 1d 800] ------- [29:255 -1:255 32 0] 
r 0.437446699 _19_ RTR  --- 8 message 32 [0 ffffffff 1d 800] ------- [29:255 -1:255 32 0] 
r 0.437446770 _4_ RTR  --- 8 message 32 [0 ffffffff 1d 800] ------- [29:255 -1:255 32 0] 
r 0.437446787 _2_ RTR  --- 8 message 32 [0 ffffffff 1d 800] ------- [29:255 -1:255 32 0] 
r 0.437446787 _18_ RTR  --- 8 message 32 [0 ffffffff 1d 800] ------- [29:255 -1:255 32 0] 
r 0.437446799 _23_ RTR  --- 8 message 32 [0 ffffffff 1d 800] ------- [29:255 -1:255 32 0] 
r 0.437446806 _16_ RTR  --- 8 message 32 [0 ffffffff 1d 800] ------- [29:255 -1:255 32 0] 
r 0.437446831 _10_ RTR  --- 8 message 32 [0 ffffffff 1d 800] ------- [29:255 -1:255 32 0] 
r 0.437446839 _6_ RTR  --- 8 message 32 [0 ffffffff 1d 800] ------- [29:255 -1:255 32 0] 
r 0.437446903 _5_ RTR  --- 8 message 32 [0 ffffffff 1d 800] ------- [29:255 -1:255 32 0] 
r 0.437446904 _1_ RTR  --- 8 message 32 [0 ffffffff 1d 800] ------- [29:255 -1:255 32 0] 
r 0.437446904 _20_ RTR  --- 8 message 32 [0 ffffffff 1d 800] ------- [29:255 -1:255 32 0] 
r 0.437446976 _0_ RTR  --- 8 message 32 [0 ffffffff 1d 800] ------- [29:255 -1:255 32 0] 
r 0.437447003 _3_ RTR  --- 8 message 32 [0 ffffffff 1d 800] ------- [29:255 -1:255 32 0] 
r 0.437447086 _15_ RTR  --- 8 message 32 [0 ffffffff 1d 800] ------- [29:255 -1:255 32 0] 
s 0.470117073 _8_ RTR  --- 9 message 32 [0 0 0 0] ------- [8:255 -1:255 32 0] 
r 0.471397198 _25_ RTR  --- 9 message 32 [0 ffffffff 8 800] ------- [8:255 -1:255 32 0] 
r 0.471397376 _21_ RTR  --- 9 message 32 [0 ffffffff 8 800] ------- [8:255 -1:255 32 0] 
r 0.471397493 _11_ RTR  --- 9 message 32 [0 ffffffff 8 800] ------- [8:255 -1:255 32 0] 
r 0.471397508 _9_ RTR  --- 9 message 32 [0 ffffffff 8 800] ------- [8:255 -1:255 32 0] 
r 0.471397540 _13_ RTR  --- 9 message 32 [0 ffffffff 8 800] ------- [8:255 -1:255 32 0] 
r 0.471397641 _14_ RTR  --- 9 message 32 [0 ffffffff 8 800] ------- [8:255 -1:255 32 0] 
r 0.471397795 _3_ RTR  --- 9 message 32 [0 ffffffff 8 800] ------- [8:255 -1:255 32 0] 
r 0.471397834 _0_ RTR  --- 9 message 32 [0 ffffffff 8 800] ------- [8:255 -1:255 32 0] 
r 0.471397875 _15_ RTR  --- 9 message 32 [0 ffffffff 8 800] ------- [8:255 -1:255 32 0] 
r 0.471397888 _20_ RTR  --- 9 message 32 [0 ffffffff 8 800] ------- [8:255 -1:255 32 0] 
r 0.471397902 _22_ RTR  --- 9 message 32 [0 ffffffff 8 800] ------- [8:255 -1:255 32 0] 
s 0.521504883 _22_ RTR  --- 10 message 32 [0 0 0 0] ------- [22:255 -1:255 32 0] 
r 0.522405321 _14_ RTR  --- 10 message 32 [0 ffffffff 16 800] ------- [22:255 -1:255 32 0] 
r 0.522405539 _21_ RTR  --- 10 message 32 [0 ffffffff 16 800] ------- [22:255 -1:255 32 0] 
r 0.522405562 _13_ RTR  --- 10 message 32 [0 ffffffff 16 800] ------- [22:255 -1:255 32 0] 
r 0.522405588 _25_ RTR  --- 10 message 32 [0 ffffffff 16 800] ------- [22:255 -1:255 32 0] 
r 0.522405603 _9_ RTR  --- 10 message 32 [0 ffffffff 16 800] ------- [22:255 -1:255 32 0] 
r 0.522405625 _11_ RTR  --- 10 message 32 [0 ffffffff 16 800] ------- [22:255 -1:255 32 0] 
r 0.522405713 _8_ RTR  --- 10 message 32 [0 ffffffff 16 800] ------- [22:255 -1:255 32 0] 
s 0.626302117 _10_ RTR  --- 11 message 32 [0 0 0 0] ------- [10:255 -1:255 32 0] 
r 0.627242299 _18_ RTR  --- 11 message 32 [0 ffffffff a 800] ------- [10:255 -1:255 32 0] 
r 0.627242367 _19_ RTR  --- 11 message 32 [0 ffffffff a 800] ------- [10:255 -1:255 32 0] 
r 0.627242379 _2_ RTR  --- 11 message 32 [0 ffffffff a 800] ------- [10:255 -1:255 32 0] 
r 0.627242440 _17_ RTR  --- 11 message 32 [0 ffffffff a 800] ------- [10:255 -1:255 32 0] 
r 0.627242689 _29_ RTR  --- 11 message 32 [0 ffffffff a 800] ------- [10:255 -1:255 32 0] 
r 0.627242758 _1_ RTR  --- 11 message 32 [0 ffffffff a 800] ------- [10:255 -1:255 32 0] 
r 0.627242758 _5_ RTR  --- 11 message 32 [0 ffffffff a 800] ------- [10:255 -1:255 32 0] 
r 0.627242921 _26_ RTR  --- 11 message 32 [0 ffffffff a 800] ------- [10:255 -1:255 32 0] 
r 0.627242944 _12_ RTR  --- 11 message 32 [0 ffffffff a 800] ------- [10:255 -1:255 32 0] 
s 0.633203961 _6_ RTR  --- 12 message 32 [0 0 0 0] ------- [6:255 -1:255 32 0] 
r 0.634604020 _23_ RTR  --- 12 message 32 [0 ffffffff 6 800] ------- [6:255 -1:255 32 0] 
r 0.634604227 _28_ RTR  --- 12 message 32 [0 ffffffff 6 800] ------- [6:255 -1:255 32 0] 
r 0.634604264 _12_ RTR  --- 12 message 32 [0 ffffffff 6 800] ------- [6:255 -1:255 32 0] 
r 0.634604286 _26_ RTR  --- 12 message 32 [0 ffffffff 6 800] ------- [6:255 -1:255 32 0] 
r 0.634604376 _27_ RTR  --- 12 message 32 [0 ffffffff 6 800] ------- [6:255 -1:255 32 0] 
r 0.634604379 _24_ RTR  --- 12 message 32 [0 ffffffff 6 800] ------- [6:255 -1:255 32 0] 
r 0.634604381 _4_ RTR  --- 12 message 32 [0 ffffffff 6 800] ------- [6:255 -1:255 32 0] 
r 0.634604395 _7_ RTR  --- 12 message 32 [0 ffffffff 6 800] ------- [6:255 -1:255 32 0] 
r 0.634604431 _15_ RTR  --- 12 message 32 [0 ffffffff 6 800] ------- [6:255 -1:255 32 0] 
r 0.634604443 _20_ RTR  --- 12 message 32 [0 ffffffff 6 800] ------- [6:255 -1:255 32 0] 
r 0.634604474 _0_ RTR  --- 12 message 32 [0 ffffffff 6 800] ------- [6:255 -1:255 32 0] 
r 0.634604540 _29_ RTR  --- 12 message 32 [0 ffffffff 6 800] ------- [6:255 -1:255 32 0] 
r 0.634604776 _17_ RTR  --- 12 message 32 [0 ffffffff 6 800] ------- [6:255 -1:255 32 0] 
r 0.634604784 _16_ RTR  --- 12 message 32 [0 ffffffff 6 800] ------- [6:255 -1:255 32 0] 
s 0.703066137 _21_ RTR  --- 13 message 32 [0 0 0 0] ------- [21:255 -1:255 32 0] 
r 0.704426297 _11_ RTR  --- 13 message 32 [0 ffffffff 15 800] ------- [21:255 -1:255 32 0] 
r 0.704426297 _9_ RTR  --- 13 message 32 [0 ffffffff 15 800] ------- [21:255 -1:255 32 0] 
r 0.704426312 _13_ RTR  --- 13 message 32 [0 ffffffff 15 800] ------- [21:255 -1:255 32 0] 
r 0.704426367 _25_ RTR  --- 13 message 32 [0 ffffffff 15 800] ------- [21:255 -1:255 32 0] 
r 0.704426427 _14_ RTR  --- 13 message 32 [0 ffffffff 15 800] ------- [21:255 -1:255 32 0] 
r 0.704426440 _8_ RTR  --- 13 message 32 [0 ffffffff 15 800] ------- [21:255 -1:255 32 0] 
r 0.704426793 _22_ RTR  --- 13 message 32 [0 ffffffff 15 800] ------- [21:255 -1:255 32 0] 
r 0.704426877 _15_ RTR  --- 13 message 32 [0 ffffffff 15 800] ------- [21:255 -1:255 32 0] 
r 0.704426910 _0_ RTR  --- 13 message 32 [0 ffffffff 15 800] ------- [21:255 -1:255 32 0] 
r 0.704426943 _24_ RTR  --- 13 message 32 [0 ffffffff 15 800] ------- [21:255 -1:255 32 0] 
s 0.818871236 _23_ RTR  --- 14 message 32 [0 0 0 0] ------- [23:255 -1:255 32 0] 
r 0.820031296 _6_ RTR  --- 14 message 32 [0 ffffffff 17 800] ------- [23:255 -1:255 32 0] 
r 0.820031443 _28_ RTR  --- 14 message 32 [0 ffffffff 17 800] ------- [23:255 -1:255 32 0] 
r 0.820031489 _12_ RTR  --- 14 message 32 [0 ffffffff 17 800] ------- [23:255 -1:255 32 0] 
r 0.820031513 _26_ RTR  --- 14 message 32 [0 ffffffff 17 800] ------- [23:255 -1:255 32 0] 
r 0.820031643 _27_ RTR  --- 14 message 32 [0 ffffffff 17 800] ------- [23:255 -1:255 32 0] 
r 0.820031675 _4_ RTR  --- 14 message 32 [0 ffffffff 17 800] ------- [23:255 -1:255 32 0] 
r 0.820031712 _24_ RTR  --- 14 message 32 [0 ffffffff 17 800] ------- [23:255 -1:255 32 0] 
r 0.820031730 _7_ RTR  --- 14 message 32 [0 ffffffff 17 800] ------- [23:255 -1:255 32 0] 
r 0.820031751 _20_ RTR  --- 14 message 32 [0 ffffffff 17 800] ------- [23:255 -1:255 32 0] 
r 0.820031758 _15_ RTR  --- 14 message 32 [0 ffffffff 17 800] ------- [23:255 -1:255 32 0] 
r 0.820031776 _29_ RTR  --- 14 message 32 [0 ffffffff 17 800] ------- [23:255 -1:255 32 0] 
r 0.820031788 _0_ RTR  --- 14 message 32 [0 ffffffff 17 800] ------- [23:255 -1:255 32 0] 
r 0.820032001 _17_ RTR  --- 14 message 32 [0 ffffffff 17 800] ------- [23:255 -1:255 32 0] 
r 0.820032059 _16_ RTR  --- 14 message 32 [0 ffffffff 17 800] ------- [23:255 -1:255 32 0] 
s 0.847315218 _17_ RTR  --- 15 message 32 [0 0 0 0] ------- [17:255 -1:255 32 0] 
r 0.848315353 _19_ RTR  --- 15 message 32 [0 ffffffff 11 800] ------- [17:255 -1:255 32 0] 
r 0.848315441 _2_ RTR  --- 15 message 32 [0 ffffffff 11 800] ------- [17:255 -1:255 32 0] 
r 0.848315446 _18_ RTR  --- 15 message 32 [0 ffffffff 11 800] ------- [17:255 -1:255 32 0] 
r 0.848315523 _29_ RTR  --- 15 message 32 [0 ffffffff 11 800] ------- [17:255 -1:255 32 0] 
r 0.848315541 _10_ RTR  --- 15 message 32 [0 ffffffff 11 800] ------- [17:255 -1:255 32 0] 
r 0.848315665 _5_ RTR  --- 15 message 32 [0 ffffffff 11 800] ------- [17:255 -1:255 32 0] 
r 0.848315665 _1_ RTR  --- 15 message 32 [0 ffffffff 11 800] ------- [17:255 -1:255 32 0] 
r 0.848315709 _26_ RTR  --- 15 message 32 [0 ffffffff 11 800] ------- [17:255 -1:255 32 0] 
r 0.848315731 _12_ RTR  --- 15 message 32 [0 ffffffff 11 800] ------- [17:255 -1:255 32 0] 
r 0.848315793 _28_ RTR  --- 15 message 32 [0 ffffffff 11 800] ------- [17:255 -1:255 32 0] 
r 0.848315838 _27_ RTR  --- 15 message 32 [0 ffffffff 11 800] ------- [17:255 -1:255 32 0] 
r 0.848315982 _23_ RTR  --- 15 message 32 [0 ffffffff 11 800] ------- [17:255 -1:255 32 0] 
r 0.848316007 _16_ RTR  --- 15 message 32 [0 ffffffff 11 800] ------- [17:255 -1:255 32 0] 
r 0.848316033 _4_ RTR  --- 15 message 32 [0 ffffffff 11 800] ------- [17:255 -1:255 32 0] 
r 0.848316033 _6_ RTR  --- 15 message 32 [0 ffffffff 11 800] ------- [17:255 -1:255 32 0] 
s 0.891466156 _4_ RTR  --- 16 message 32 [0 0 0 0] ------- [4:255 -1:255 32 0] 
r 0.892406291 _20_ RTR  --- 16 message 32 [0 ffffffff 4 800] ------- [4:255 -1:255 32 0] 
r 0.892406351 _27_ RTR  --- 16 message 32 [0 ffffffff 4 800] ------- [4:255 -1:255 32 0] 
r 0.892406362 _0_ RTR  --- 16 message 32 [0 ffffffff 4 800] ------- [4:255 -1:255 32 0] 
r 0.892406497 _15_ RTR  --- 16 message 32 [0 ffffffff 4 800] ------- [4:255 -1:255 32 0] 
r 0.892406576 _6_ RTR  --- 16 message 32 [0 ffffffff 4 800] ------- [4:255 -1:255 32 0] 
r 0.892406578 _24_ RTR  --- 16 message 32 [0 ffffffff 4 800] ------- [4:255 -1:255 32 0] 
r 0.892406588 _3_ RTR  --- 16 message 32 [0 ffffffff 4 800] ------- [4:255 -1:255 32 0] 
r 0.892406595 _23_ RTR  --- 16 message 32 [0 ffffffff 4 800] ------- [4:255 -1:255 32 0] 
r 0.892406597 _16_ RTR  --- 16 message 32 [0 ffffffff 4 800] ------- [4:255 -1:255 32 0] 
r 0.892406601 _26_ RTR  --- 16 message 32 [0 ffffffff 4 800] ------- [4:255 -1:255 32 0] 
r 0.892406605 _12_ RTR  --- 16 message 32 [0 ffffffff 4 800] ------- [4:255 -1:255 32 0] 
r 0.892406667 _29_ RTR  --- 16 message 32 [0 ffffffff 4 800] ------- [4:255 -1:255 32 0] 
r 0.892406675 _28_ RTR  --- 16 message 32 [0 ffffffff 4 800] ------- [4:255 -1:255 32 0] 
r 0.892406677 _7_ RTR  --- 16 message 32 [0 ffffffff 4 800] ------- [4:255 -1:255 32 0] 
r 0.892406971 _17_ RTR  --- 16 message 32 [0 ffffffff 4 800] ------- [4:255 -1:255 32 0] 
s 0.932265375 _25_ RTR  --- 17 message 32 [0 0 0 0] ------- [25:255 -1:255 32 0] 
r 0.933225501 _8_ RTR  --- 17 message 32 [0 ffffffff 19 800] ------- [25:255 -1:255 32 0] 
r 0.933225606 _21_ RTR  --- 17 message 32 [0 ffffffff 19 800] ------- [25:255 -1:255 32 0] 
r 0.933225753 _11_ RTR  --- 17 message 32 [0 ffffffff 19 800] ------- [25:255 -1:255 32 0] 
r 0.933225760 _9_ RTR  --- 17 message 32 [0 ffffffff 19 800] ------- [25:255 -1:255 32 0] 
r 0.933225780 _13_ RTR  --- 17 message 32 [0 ffffffff 19 800] ------- [25:255 -1:255 32 0] 
r 0.933225837 _14_ RTR  --- 17 message 32 [0 ffffffff 19 800] ------- [25:255 -1:255 32 0] 
r 0.933226080 _22_ RTR  --- 17 message 32 [0 ffffffff 19 800] ------- [25:255 -1:255 32 0] 
M 1.00000 0 (374.49, 123.35, 0.00), (384.95, 123.35), 10.46
M 1.00000 1 (11.98, 1.65, 0.00), (11.98, 1.65), 38.36
s 1.045355908 _24_ RTR  --- 18 message 32 [0 0 0 0] ------- [24:255 -1:255 32 0] 
r 1.046676018 _7_ RTR  --- 18 message 32 [0 ffffffff 18 800] ------- [24:255 -1:255 32 0] 
r 1.046676040 _15_ RTR  --- 18 message 32 [0 ffffffff 18 800] ------- [24:255 -1:255 32 0] 
r 1.046676220 _0_ RTR  --- 18 message 32 [0 ffffffff 18 800] ------- [24:255 -1:255 32 0] 
r 1.046676258 _20_ RTR  --- 18 message 32 [0 ffffffff 18 800] ------- [24:255 -1:255 32 0] 
r 1.046676326 _6_ RTR  --- 18 message 32 [0 ffffffff 18 800] ------- [24:255 -1:255 32 0] 
r 1.046676329 _4_ RTR  --- 18 message 32 [0 ffffffff 18 800] ------- [24:255 -1:255 32 0] 
r 1.046676384 _23_ RTR  --- 18 message 32 [0 ffffffff 18 800] ------- [24:255 -1:255 32 0] 
r 1.046676484 _27_ RTR  --- 18 message 32 [0 ffffffff 18 800] ------- [24:255 -1:255 32 0] 
r 1.046676576 _12_ RTR  --- 18 message 32 [0 ffffffff 18 800] ------- [24:255 -1:255 32 0] 
r 1.046676578 _28_ RTR  --- 18 message 32 [0 ffffffff 18 800] ------- [24:255 -1:255 32 0] 
r 1.046676579 _11_ RTR  --- 18 message 32 [0 ffffffff 18 800] ------- [24:255 -1:255 32 0] 
r 1.046676589 _26_ RTR  --- 18 message 32 [0 ffffffff 18 800] ------- [24:255 -1:255 32 0] 
r 1.046676596 _9_ RTR  --- 18 message 32 [0 ffffffff 18 800] ------- [24:255 -1:255 32 0] 
r 1.046676630 _13_ RTR  --- 18 message 32 [0 ffffffff 18 800] ------- [24:255 -1:255 32 0] 
r 1.046676647 _3_ RTR  --- 18 message 32 [0 ffffffff 18 800] ------- [24:255 -1:255 32 0] 
r 1.046676714 _21_ RTR  --- 18 message 32 [0 ffffffff 18 800] ------- [24:255 -1:255 32 0] 
s 1.117914998 _1_ RTR  --- 19 message 32 [0 0 0 0] ------- [1:255 -1:255 32 0] 
r 1.118994999 _5_ RTR  --- 19 message 32 [0 ffffffff 1 800] ------- [1:255 -1:255 32 0] 
r 1.118995378 _2_ RTR  --- 19 message 32 [0 ffffffff 1 800] ------- [1:255 -1:255 32 0] 
r 1.118995407 _19_ RTR  --- 19 message 32 [0 ffffffff 1 800] ------- [1:255 -1:255 32 0] 
r 1.118995445 _17_ RTR  --- 19 message 32 [0 ffffffff 1 800] ------- [1:255 -1:255 32 0] 
r 1.118995458 _18_ RTR  --- 19 message 32 [0 ffffffff 1 800] ------- [1:255 -1:255 32 0] 
r 1.118995632 _28_ RTR  --- 19 message 32 [0 ffffffff 1 800] ------- [1:255 -1:255 32 0] 
r 1.118995639 _10_ RTR  --- 19 message 32 [0 ffffffff 1 800] ------- [1:255 -1:255 32 0] 
r 1.118995643 _29_ RTR  --- 19 message 32 [0 ffffffff 1 800] ------- [1:255 -1:255 32 0] 
r 1.118995644 _26_ RTR  --- 19 message 32 [0 ffffffff 1 800] ------- [1:255 -1:255 32 0] 
r 1.118995648 _12_ RTR  --- 19 message 32 [0 ffffffff 1 800] ------- [1:255 -1:255 32 0] 
s 1.279806438 _9_ RTR  --- 20 message 32 [0 0 0 0] ------- [9:255 -1:255 32 0] 
r 1.281146465 _11_ RTR  --- 20 message 32 [0 ffffffff 9 800] ------- [9:255 -1:255 32 0] 
r 1.281146489 _13_ RTR  --- 20 message 32 [0 ffffffff 9 800] ------- [9:255 -1:255 32 0] 
r 1.281146598 _21_ RTR  --- 20 message 32 [0 ffffffff 9 800] ------- [9:255 -1:255 32 0] 
r 1.281146731 _14_ RTR  --- 20 message 32 [0 ffffffff 9 800] ------- [9:255 -1:255 32 0] 
r 1.281146823 _25_ RTR  --- 20 message 32 [0 ffffffff 9 800] ------- [9:255 -1:255 32 0] 
r 1.281146873 _8_ RTR  --- 20 message 32 [0 ffffffff 9 800] ------- [9:255 -1:255 32 0] 
r 1.281147080 _15_ RTR  --- 20 message 32 [0 ffffffff 9 800] ------- [9:255 -1:255 32 0] 
r 1.281147126 _24_ RTR  --- 20 message 32 [0 ffffffff 9 800] ------- [9:255 -1:255 32 0] 
r 1.281147138 _0_ RTR  --- 20 message 32 [0 ffffffff 9 800] ------- [9:255 -1:255 32 0] 
r 1.281147154 _7_ RTR  --- 20 message 32 [0 ffffffff 9 800] ------- [9:255 -1:255 32 0] 
r 1.281147157 _22_ RTR  --- 20 message 32 [0 ffffffff 9 800] ------- [9:255 -1:255 32 0] 
r 1.281147220 _20_ RTR  --- 20 message 32 [0 ffffffff 9 800] ------- [9:255 -1:255 32 0] 
s 1.284507540 _14_ RTR  --- 21 message 32 [0 0 0 0] ------- [14:255 -1:255 32 0] 
r 1.285347787 _13_ RTR  --- 21 message 32 [0 ffffffff e 800] ------- [14:255 -1:255 32 0] 
r 1.285347830 _21_ RTR  --- 21 message 32 [0 ffffffff e 800] ------- [14:255 -1:255 32 0] 
r 1.285347833 _9_ RTR  --- 21 message 32 [0 ffffffff e 800] ------- [14:255 -1:255 32 0] 
r 1.285347859 _11_ RTR  --- 21 message 32 [0 ffffffff e 800] ------- [14:255 -1:255 32 0] 
r 1.285347978 _22_ RTR  --- 21 message 32 [0 ffffffff e 800] ------- [14:255 -1:255 32 0] 
r 1.285348002 _25_ RTR  --- 21 message 32 [0 ffffffff e 800] ------- [14:255 -1:255 32 0] 
r 1.285348108 _8_ RTR  --- 21 message 32 [0 ffffffff e 800] ------- [14:255 -1:255 32 0] 
s 1.388917713 _26_ RTR  --- 22 message 32 [0 0 0 0] ------- [26:255 -1:255 32 0] 
r 1.389757740 _12_ RTR  --- 22 message 32 [0 ffffffff 1a 800] ------- [26:255 -1:255 32 0] 
r 1.389757848 _28_ RTR  --- 22 message 32 [0 ffffffff 1a 800] ------- [26:255 -1:255 32 0] 
r 1.389757987 _29_ RTR  --- 22 message 32 [0 ffffffff 1a 800] ------- [26:255 -1:255 32 0] 
r 1.389757990 _23_ RTR  --- 22 message 32 [0 ffffffff 1a 800] ------- [26:255 -1:255 32 0] 
r 1.389758009 _27_ RTR  --- 22 message 32 [0 ffffffff 1a 800] ------- [26:255 -1:255 32 0] 
r 1.389758038 _6_ RTR  --- 22 message 32 [0 ffffffff 1a 800] ------- [26:255 -1:255 32 0] 
r 1.389758158 _4_ RTR  --- 22 message 32 [0 ffffffff 1a 800] ------- [26:255 -1:255 32 0] 
r 1.389758204 _17_ RTR  --- 22 message 32 [0 ffffffff 1a 800] ------- [26:255 -1:255 32 0] 
r 1.389758282 _20_ RTR  --- 22 message 32 [0 ffffffff 1a 800] ------- [26:255 -1:255 32 0] 
r 1.389758327 _19_ RTR  --- 22 message 32 [0 ffffffff 1a 800] ------- [26:255 -1:255 32 0] 
r 1.389758356 _0_ RTR  --- 22 message 32 [0 ffffffff 1a 800] ------- [26:255 -1:255 32 0] 
r 1.389758358 _5_ RTR  --- 22 message 32 [0 ffffffff 1a 800] ------- [26:255 -1:255 32 0] 
r 1.389758359 _1_ RTR  --- 22 message 32 [0 ffffffff 1a 800] ------- [26:255 -1:255 32 0] 
r 1.389758394 _15_ RTR  --- 22 message 32 [0 ffffffff 1a 800] ------- [26:255 -1:255 32 0] 
r 1.389758394 _24_ RTR  --- 22 message 32 [0 ffffffff 1a 800] ------- [26:255 -1:255 32 0] 
r 1.389758399 _2_ RTR  --- 22 message 32 [0 ffffffff 1a 800] ------- [26:255 -1:255 32 0] 
r 1.389758402 _16_ RTR  --- 22 message 32 [0 ffffffff 1a 800] ------- [26:255 -1:255 32 0] 
r 1.389758427 _18_ RTR  --- 22 message 32 [0 ffffffff 1a 800] ------- [26:255 -1:255 32 0] 
r 1.389758442 _7_ RTR  --- 22 message 32 [0 ffffffff 1a 800] ------- [26:255 -1:255 32 0] 
r 1.389758517 _10_ RTR  --- 22 message 32 [0 ffffffff 1a 800] ------- [26:255 -1:255 32 0] 
r 1.389758527 _3_ RTR  --- 22 message 32 [0 ffffffff 1a 800] ------- [26:255 -1:255 32 0] 
s 1.603158648 _5_ RTR  --- 23 message 32 [0 0 0 0] ------- [5:255 -1:255 32 0] 
r 1.604458648 _1_ RTR  --- 23 message 32 [0 ffffffff 5 800] ------- [5:255 -1:255 32 0] 
r 1.604459028 _2_ RTR  --- 23 message 32 [0 ffffffff 5 800] ------- [5:255 -1:255 32 0] 
r 1.604459057 _19_ RTR  --- 23 message 32 [0 ffffffff 5 800] ------- [5:255 -1:255 32 0] 
r 1.604459095 _17_ RTR  --- 23 message 32 [0 ffffffff 5 800] ------- [5:255 -1:255 32 0] 
r 1.604459108 _18_ RTR  --- 23 message 32 [0 ffffffff 5 800] ------- [5:255 -1:255 32 0] 
r 1.604459281 _28_ RTR  --- 23 message 32 [0 ffffffff 5 800] ------- [5:255 -1:255 32 0] 
r 1.604459289 _10_ RTR  --- 23 message 32 [0 ffffffff 5 800] ------- [5:255 -1:255 32 0] 
r 1.604459292 _29_ RTR  --- 23 message 32 [0 ffffffff 5 800] ------- [5:255 -1:255 32 0] 