n -t * -s 0  -x 84.420000000000002 -y 790.08000000000004 -Z 0 -z 100  -v circle -c black
n -t * -s 1  -x 69.810000000000002 -y 493.24000000000001 -Z 0 -z 100  -v circle -c black
n -t * -s 2  -x 150.47 -y 725.76999999999998 -Z 0 -z 100  -v circle -c black
n -t * -s 3  -x 239.19 -y 431.36000000000001 -Z 0 -z 100  -v circle -c black
n -t * -s 4  -x 855.69000000000005 -y 507.33999999999997 -Z 0 -z 100  -v circle -c black
n -t * -s 5  -x 945.55999999999995 -y 759.75999999999999 -Z 0 -z 100  -v circle -c black
n -t * -s 6  -x 948.38 -y 224.59 -Z 0 -z 100  -v circle -c black
n -t * -s 7  -x 158.16999999999999 -y 1157.8299999999999 -Z 0 -z 100  -v circle -c black
n -t * -s 8  -x 748.08000000000004 -y 65.049999999999997 -Z 0 -z 100  -v circle -c black
n -t * -s 9  -x 498.01999999999998 -y 883.37 -Z 0 -z 100  -v circle -c black
n -t * -s 10  -x 726.05999999999995 -y 674.73000000000002 -Z 0 -z 100  -v circle -c black
n -t * -s 11  -x 1003.87 -y 545.75 -Z 0 -z 100  -v circle -c black
n -t * -s 12  -x 750.57000000000005 -y 315.64999999999998 -Z 0 -z 100  -v circle -c black
n -t * -s 13  -x 387.66000000000003 -y 1163.54 -Z 0 -z 100  -v circle -c black
n -t * -s 14  -x 132.24000000000001 -y 859.20000000000005 -Z 0 -z 100  -v circle -c black
n -t * -s 15  -x 1171.9100000000001 -y 996.61000000000001 -Z 0 -z 100  -v circle -c black
n -t * -s 16  -x 723.03999999999996 -y 153.22 -Z 0 -z 100  -v circle -c black
n -t * -s 17  -x 423.58999999999997 -y 1182.1199999999999 -Z 0 -z 100  -v circle -c black
n -t * -s 18  -x 438.70999999999998 -y 1328.4200000000001 -Z 0 -z 100  -v circle -c black
n -t * -s 19  -x 372.38999999999999 -y 1347.05 -Z 0 -z 100  -v circle -c black
n -t * -s 20  -x 752.87 -y 1164.0799999999999 -Z 0 -z 100  -v circle -c black
n -t * -s 21  -x 1325.8099999999999 -y 798.39999999999998 -Z 0 -z 100  -v circle -c black
n -t * -s 22  -x 156.03999999999999 -y 128.62 -Z 0 -z 100  -v circle -c black
n -t * -s 23  -x 905.38999999999999 -y 97.719999999999999 -Z 0 -z 100  -v circle -c black
n -t * -s 24  -x 137.41999999999999 -y 1219.71 -Z 0 -z 100  -v circle -c black
n -t * -s 25  -x 0 -y 0 -Z 0 -z 100  -v circle -c black
n -t * -s 26  -x 0 -y 0 -Z 0 -z 100  -v circle -c black
n -t * -s 27  -x 0 -y 0 -Z 0 -z 100  -v circle -c black
n -t * -s 28  -x 0 -y 1000 -Z 0 -z 100  -v circle -c black
n -t * -s 29  -x 1000 -y 0 -Z 0 -z 100  -v circle -c black
V -t * -v 1.0a5 -a 0
W -t * -x 1700 -y 1700
A -t * -n 1 -p 0 -o 0x7fffffff -c 30 -a 1
A -t * -h 1 -m 1073741823 -s 0
n -t 0.000000 -s 0 -x 84.420000 -y 790.080000 -U 0.000000 -V 0.000000 -T 0.000000
n -t 0.000000 -s 1 -x 69.810000 -y 493.240000 -U 0.000000 -V 0.000000 -T 0.000000
n -t 0.000000 -s 2 -x 150.470000 -y 725.770000 -U 0.000000 -V 0.000000 -T 0.000000
n -t 0.000000 -s 3 -x 239.190000 -y 431.360000 -U 0.000000 -V 0.000000 -T 0.000000
n -t 0.000000 -s 4 -x 855.690000 -y 507.340000 -U 0.000000 -V 0.000000 -T 0.000000
n -t 0.000000 -s 5 -x 945.560000 -y 759.760000 -U 0.000000 -V 0.000000 -T 0.000000
n -t 0.000000 -s 6 -x 948.380000 -y 224.590000 -U 0.000000 -V 0.000000 -T 0.000000
n -t 0.000000 -s 7 -x 158.170000 -y 1157.830000 -U 0.000000 -V 0.000000 -T 0.000000
n -t 0.000000 -s 8 -x 748.080000 -y 65.050000 -U 0.000000 -V 0.000000 -T 0.000000
n -t 0.000000 -s 9 -x 498.020000 -y 883.370000 -U 0.000000 -V 0.000000 -T 0.000000
n -t 0.000000 -s 10 -x 726.060000 -y 674.730000 -U 0.000000 -V 0.000000 -T 0.000000
n -t 0.000000 -s 11 -x 1003.870000 -y 545.750000 -U 0.000000 -V 0.000000 -T 0.000000
n -t 0.000000 -s 12 -x 750.570000 -y 315.650000 -U 0.000000 -V 0.000000 -T 0.000000
n -t 0.000000 -s 13 -x 387.660000 -y 1163.540000 -U 0.000000 -V 0.000000 -T 0.000000
n -t 0.000000 -s 14 -x 132.240000 -y 859.200000 -U 0.000000 -V 0.000000 -T 0.000000
n -t 0.000000 -s 15 -x 1171.910000 -y 996.610000 -U 0.000000 -V 0.000000 -T 0.000000
n -t 0.000000 -s 16 -x 723.040000 -y 153.220000 -U 0.000000 -V 0.000000 -T 0.000000
n -t 0.000000 -s 17 -x 423.590000 -y 1182.120000 -U 0.000000 -V 0.000000 -T 0.000000
n -t 0.000000 -s 18 -x 438.710000 -y 1328.420000 -U 0.000000 -V 0.000000 -T 0.000000
n -t 0.000000 -s 19 -x 372.390000 -y 1347.050000 -U 0.000000 -V 0.000000 -T 0.000000
n -t 0.000000 -s 20 -x 752.870000 -y 1164.080000 -U 0.000000 -V 0.000000 -T 0.000000
n -t 0.000000 -s 21 -x 1325.810000 -y 798.400000 -U 0.000000 -V 0.000000 -T 0.000000
n -t 0.000000 -s 22 -x 156.040000 -y 128.620000 -U 0.000000 -V 0.000000 -T 0.000000
n -t 0.000000 -s 23 -x 905.390000 -y 97.720000 -U 0.000000 -V 0.000000 -T 0.000000
n -t 0.000000 -s 24 -x 137.420000 -y 1219.710000 -U 0.000000 -V 0.000000 -T 0.000000
n -t 0.000000 -s 0 -x 84.420000 -y 790.080000 -U 0.000000 -V 0.000000 -T 0.000000
n -t 0.000000 -s 1 -x 69.810000 -y 493.240000 -U 0.000000 -V 0.000000 -T 0.000000
+ -t 0.003091411 -s 0 -d -1 -p message -e 32 -c 2 -a 0 -i 0 -k RTR 
- -t 0.003091411 -s 0 -d -1 -p message -e 32 -c 2 -a 0 -i 0 -k RTR
h -t 0.003091411 -s 0 -d -1 -p message -e 32 -c 2 -a 0 -i 0 -k RTR
+ -t 0.003466411 -s 0 -d -1 -p message -e 90 -c 2 -a 0 -i 0 -k MAC 
- -t 0.003466411 -s 0 -d -1 -p message -e 90 -c 2 -a 0 -i 0 -k MAC
h -t 0.003466411 -s 0 -d -1 -p message -e 90 -c 2 -a 0 -i 0 -k MAC
r -t 0.004186691 -s 14 -d -1 -p message -e 32 -c 2 -a 0 -i 0 -k MAC
r -t 0.004186718 -s 2 -d -1 -p message -e 32 -c 2 -a 0 -i 0 -k MAC
r -t 0.004187165 -s 28 -d -1 -p message -e 32 -c 2 -a 0 -i 0 -k MAC
r -t 0.004187401 -s 1 -d -1 -p message -e 32 -c 2 -a 0 -i 0 -k MAC
r -t 0.004187661 -s 7 -d -1 -p message -e 32 -c 2 -a 0 -i 0 -k MAC
r -t 0.004187713 -s 3 -d -1 -p message -e 32 -c 2 -a 0 -i 0 -k MAC
r -t 0.004211691 -s 14 -d -1 -p message -e 32 -c 2 -a 0 -i 0 -k RTR
r -t 0.004211718 -s 2 -d -1 -p message -e 32 -c 2 -a 0 -i 0 -k RTR
r -t 0.004212165 -s 28 -d -1 -p message -e 32 -c 2 -a 0 -i 0 -k RTR
r -t 0.004212401 -s 1 -d -1 -p message -e 32 -c 2 -a 0 -i 0 -k RTR
r -t 0.004212661 -s 7 -d -1 -p message -e 32 -c 2 -a 0 -i 0 -k RTR
r -t 0.004212713 -s 3 -d -1 -p message -e 32 -c 2 -a 0 -i 0 -k RTR
+ -t 0.037458776 -s 2 -d -1 -p message -e 32 -c 2 -a 0 -i 1 -k RTR 
- -t 0.037458776 -s 2 -d -1 -p message -e 32 -c 2 -a 0 -i 1 -k RTR
h -t 0.037458776 -s 2 -d -1 -p message -e 32 -c 2 -a 0 -i 1 -k RTR
+ -t 0.037813776 -s 2 -d -1 -p message -e 90 -c 2 -a 0 -i 1 -k MAC 
- -t 0.037813776 -s 2 -d -1 -p message -e 90 -c 2 -a 0 -i 1 -k MAC
h -t 0.037813776 -s 2 -d -1 -p message -e 90 -c 2 -a 0 -i 1 -k MAC
r -t 0.038534083 -s 0 -d -1 -p message -e 32 -c 2 -a 0 -i 1 -k MAC
r -t 0.038534225 -s 14 -d -1 -p message -e 32 -c 2 -a 0 -i 1 -k MAC
r -t 0.038534596 -s 1 -d -1 -p message -e 32 -c 2 -a 0 -i 1 -k MAC
r -t 0.038534801 -s 3 -d -1 -p message -e 32 -c 2 -a 0 -i 1 -k MAC
r -t 0.038534819 -s 28 -d -1 -p message -e 32 -c 2 -a 0 -i 1 -k MAC
r -t 0.038535048 -s 9 -d -1 -p message -e 32 -c 2 -a 0 -i 1 -k MAC
r -t 0.038559083 -s 0 -d -1 -p message -e 32 -c 2 -a 0 -i 1 -k RTR
r -t 0.038559225 -s 14 -d -1 -p message -e 32 -c 2 -a 0 -i 1 -k RTR
r -t 0.038559596 -s 1 -d -1 -p message -e 32 -c 2 -a 0 -i 1 -k RTR
r -t 0.038559801 -s 3 -d -1 -p message -e 32 -c 2 -a 0 -i 1 -k RTR
r -t 0.038559819 -s 28 -d -1 -p message -e 32 -c 2 -a 0 -i 1 -k RTR
r -t 0.038560048 -s 9 -d -1 -p message -e 32 -c 2 -a 0 -i 1 -k RTR
+ -t 0.087462768 -s 13 -d -1 -p message -e 32 -c 2 -a 0 -i 2 -k RTR 
- -t 0.087462768 -s 13 -d -1 -p message -e 32 -c 2 -a 0 -i 2 -k RTR
h -t 0.087462768 -s 13 -d -1 -p message -e 32 -c 2 -a 0 -i 2 -k RTR
+ -t 0.087757768 -s 13 -d -1 -p message -e 90 -c 2 -a 0 -i 2 -k MAC 
- -t 0.087757768 -s 13 -d -1 -p message -e 90 -c 2 -a 0 -i 2 -k MAC
h -t 0.087757768 -s 13 -d -1 -p message -e 90 -c 2 -a 0 -i 2 -k MAC
r -t 0.088477903 -s 17 -d -1 -p message -e 32 -c 2 -a 0 -i 2 -k MAC
r -t 0.088478343 -s 18 -d -1 -p message -e 32 -c 2 -a 0 -i 2 -k MAC
r -t 0.088478382 -s 19 -d -1 -p message -e 32 -c 2 -a 0 -i 2 -k MAC
r -t 0.088478533 -s 7 -d -1 -p message -e 32 -c 2 -a 0 -i 2 -k MAC
r -t 0.088478623 -s 24 -d -1 -p message -e 32 -c 2 -a 0 -i 2 -k MAC
r -t 0.088478772 -s 9 -d -1 -p message -e 32 -c 2 -a 0 -i 2 -k MAC
r -t 0.088478985 -s 20 -d -1 -p message -e 32 -c 2 -a 0 -i 2 -k MAC
r -t 0.088479092 -s 14 -d -1 -p message -e 32 -c 2 -a 0 -i 2 -k MAC
r -t 0.088502903 -s 17 -d -1 -p message -e 32 -c 2 -a 0 -i 2 -k RTR
r -t 0.088503343 -s 18 -d -1 -p message -e 32 -c 2 -a 0 -i 2 -k RTR
r -t 0.088503382 -s 19 -d -1 -p message -e 32 -c 2 -a 0 -i 2 -k RTR
r -t 0.088503533 -s 7 -d -1 -p message -e 32 -c 2 -a 0 -i 2 -k RTR
r -t 0.088503623 -s 24 -d -1 -p message -e 32 -c 2 -a 0 -i 2 -k RTR
r -t 0.088503772 -s 9 -d -1 -p message -e 32 -c 2 -a 0 -i 2 -k RTR
r -t 0.088503985 -s 20 -d -1 -p message -e 32 -c 2 -a 0 -i 2 -k RTR
r -t 0.088504092 -s 14 -d -1 -p message -e 32 -c 2 -a 0 -i 2 -k RTR
+ -t 0.177365656 -s 3 -d -1 -p message -e 32 -c 2 -a 0 -i 3 -k RTR 
- -t 0.177365656 -s 3 -d -1 -p message -e 32 -c 2 -a 0 -i 3 -k RTR
h -t 0.177365656 -s 3 -d -1 -p message -e 32 -c 2 -a 0 -i 3 -k RTR
+ -t 0.177560656 -s 3 -d -1 -p message -e 90 -c 2 -a 0 -i 3 -k MAC 
- -t 0.177560656 -s 3 -d -1 -p message -e 90 -c 2 -a 0 -i 3 -k MAC
h -t 0.177560656 -s 3 -d -1 -p message -e 90 -c 2 -a 0 -i 3 -k MAC
r -t 0.178281257 -s 1 -d -1 -p message -e 32 -c 2 -a 0 -i 3 -k MAC
r -t 0.178281681 -s 2 -d -1 -p message -e 32 -c 2 -a 0 -i 3 -k MAC
r -t 0.178281702 -s 22 -d -1 -p message -e 32 -c 2 -a 0 -i 3 -k MAC
r -t 0.178281958 -s 0 -d -1 -p message -e 32 -c 2 -a 0 -i 3 -k MAC
r -t 0.178306257 -s 1 -d -1 -p message -e 32 -c 2 -a 0 -i 3 -k RTR
r -t 0.178306681 -s 2 -d -1 -p message -e 32 -c 2 -a 0 -i 3 -k RTR
r -t 0.178306702 -s 22 -d -1 -p message -e 32 -c 2 -a 0 -i 3 -k RTR
r -t 0.178306958 -s 0 -d -1 -p message -e 32 -c 2 -a 0 -i 3 -k RTR
+ -t 0.191634337 -s 19 -d -1 -p message -e 32 -c 2 -a 0 -i 4 -k RTR 
- -t 0.191634337 -s 19 -d -1 -p message -e 32 -c 2 -a 0 -i 4 -k RTR
h -t 0.191634337 -s 19 -d -1 -p message -e 32 -c 2 -a 0 -i 4 -k RTR
+ -t 0.191889337 -s 19 -d -1 -p message -e 90 -c 2 -a 0 -i 4 -k MAC 
- -t 0.191889337 -s 19 -d -1 -p message -e 90 -c 2 -a 0 -i 4 -k MAC
h -t 0.191889337 -s 19 -d -1 -p message -e 90 -c 2 -a 0 -i 4 -k MAC
r -t 0.192609566 -s 18 -d -1 -p message -e 32 -c 2 -a 0 -i 4 -k MAC
r -t 0.192609912 -s 17 -d -1 -p message -e 32 -c 2 -a 0 -i 4 -k MAC
r -t 0.192609951 -s 13 -d -1 -p message -e 32 -c 2 -a 0 -i 4 -k MAC
r -t 0.192610228 -s 24 -d -1 -p message -e 32 -c 2 -a 0 -i 4 -k MAC
r -t 0.192610289 -s 7 -d -1 -p message -e 32 -c 2 -a 0 -i 4 -k MAC
r -t 0.192634566 -s 18 -d -1 -p message -e 32 -c 2 -a 0 -i 4 -k RTR
r -t 0.192634912 -s 17 -d -1 -p message -e 32 -c 2 -a 0 -i 4 -k RTR
r -t 0.192634951 -s 13 -d -1 -p message -e 32 -c 2 -a 0 -i 4 -k RTR
r -t 0.192635228 -s 24 -d -1 -p message -e 32 -c 2 -a 0 -i 4 -k RTR
r -t 0.192635289 -s 7 -d -1 -p message -e 32 -c 2 -a 0 -i 4 -k RTR
+ -t 0.234603229 -s 15 -d -1 -p message -e 32 -c 2 -a 0 -i 5 -k RTR 
- -t 0.234603229 -s 15 -d -1 -p message -e 32 -c 2 -a 0 -i 5 -k RTR
h -t 0.234603229 -s 15 -d -1 -p message -e 32 -c 2 -a 0 -i 5 -k RTR
+ -t 0.234898229 -s 15 -d -1 -p message -e 90 -c 2 -a 0 -i 5 -k MAC 
- -t 0.234898229 -s 15 -d -1 -p message -e 90 -c 2 -a 0 -i 5 -k MAC
h -t 0.234898229 -s 15 -d -1 -p message -e 90 -c 2 -a 0 -i 5 -k MAC
r -t 0.235619066 -s 21 -d -1 -p message -e 32 -c 2 -a 0 -i 5 -k MAC
r -t 0.235619321 -s 5 -d -1 -p message -e 32 -c 2 -a 0 -i 5 -k MAC
r -t 0.235644066 -s 21 -d -1 -p message -e 32 -c 2 -a 0 -i 5 -k RTR
r -t 0.235644321 -s 5 -d -1 -p message -e 32 -c 2 -a 0 -i 5 -k RTR
+ -t 0.333839210 -s 12 -d -1 -p message -e 32 -c 2 -a 0 -i 6 -k RTR 
- -t 0.333839210 -s 12 -d -1 -p message -e 32 -c 2 -a 0 -i 6 -k RTR
h -t 0.333839210 -s 12 -d -1 -p message -e 32 -c 2 -a 0 -i 6 -k RTR
+ -t 0.333994210 -s 12 -d -1 -p message -e 90 -c 2 -a 0 -i 6 -k MAC 
- -t 0.333994210 -s 12 -d -1 -p message -e 90 -c 2 -a 0 -i 6 -k MAC
h -t 0.333994210 -s 12 -d -1 -p message -e 90 -c 2 -a 0 -i 6 -k MAC
r -t 0.334714759 -s 16 -d -1 -p message -e 32 -c 2 -a 0 -i 6 -k MAC
r -t 0.334714936 -s 6 -d -1 -p message -e 32 -c 2 -a 0 -i 6 -k MAC
r -t 0.334714939 -s 4 -d -1 -p message -e 32 -c 2 -a 0 -i 6 -k MAC
r -t 0.334715045 -s 8 -d -1 -p message -e 32 -c 2 -a 0 -i 6 -k MAC
r -t 0.334715101 -s 23 -d -1 -p message -e 32 -c 2 -a 0 -i 6 -k MAC
r -t 0.334715351 -s 11 -d -1 -p message -e 32 -c 2 -a 0 -i 6 -k MAC
r -t 0.334715410 -s 10 -d -1 -p message -e 32 -c 2 -a 0 -i 6 -k MAC
r -t 0.334739759 -s 16 -d -1 -p message -e 32 -c 2 -a 0 -i 6 -k RTR
r -t 0.334739936 -s 6 -d -1 -p message -e 32 -c 2 -a 0 -i 6 -k RTR
r -t 0.334739939 -s 4 -d -1 -p message -e 32 -c 2 -a 0 -i 6 -k RTR
r -t 0.334740045 -s 8 -d -1 -p message -e 32 -c 2 -a 0 -i 6 -k RTR
r -t 0.334740101 -s 23 -d -1 -p message -e 32 -c 2 -a 0 -i 6 -k RTR
r -t 0.334740351 -s 11 -d -1 -p message -e 32 -c 2 -a 0 -i 6 -k RTR
r -t 0.334740410 -s 10 -d -1 -p message -e 32 -c 2 -a 0 -i 6 -k RTR
+ -t 0.351472650 -s 18 -d -1 -p message -e 32 -c 2 -a 0 -i 7 -k RTR 
- -t 0.351472650 -s 18 -d -1 -p message -e 32 -c 2 -a 0 -i 7 -k RTR
h -t 0.351472650 -s 18 -d -1 -p message -e 32 -c 2 -a 0 -i 7 -k RTR
+ -t 0.351847650 -s 18 -d -1 -p message -e 90 -c 2 -a 0 -i 7 -k MAC 
- -t 0.351847650 -s 18 -d -1 -p message -e 90 -c 2 -a 0 -i 7 -k MAC
h -t 0.351847650 -s 18 -d -1 -p message -e 90 -c 2 -a 0 -i 7 -k MAC
r -t 0.352567880 -s 19 -d -1 -p message -e 32 -c 2 -a 0 -i 7 -k MAC
r -t 0.352568140 -s 17 -d -1 -p message -e 32 -c 2 -a 0 -i 7 -k MAC
r -t 0.352568226 -s 13 -d -1 -p message -e 32 -c 2 -a 0 -i 7 -k MAC
r -t 0.352568718 -s 24 -d -1 -p message -e 32 -c 2 -a 0 -i 7 -k MAC
r -t 0.352568745 -s 7 -d -1 -p message -e 32 -c 2 -a 0 -i 7 -k MAC
r -t 0.352568832 -s 20 -d -1 -p message -e 32 -c 2 -a 0 -i 7 -k MAC
r -t 0.352592880 -s 19 -d -1 -p message -e 32 -c 2 -a 0 -i 7 -k RTR
r -t 0.352593140 -s 17 -d -1 -p message -e 32 -c 2 -a 0 -i 7 -k RTR
r -t 0.352593226 -s 13 -d -1 -p message -e 32 -c 2 -a 0 -i 7 -k RTR
r -t 0.352593718 -s 24 -d -1 -p message -e 32 -c 2 -a 0 -i 7 -k RTR
r -t 0.352593745 -s 7 -d -1 -p message -e 32 -c 2 -a 0 -i 7 -k RTR
r -t 0.352593832 -s 20 -d -1 -p message -e 32 -c 2 -a 0 -i 7 -k RTR
+ -t 0.436386259 -s 29 -d -1 -p message -e 32 -c 2 -a 0 -i 8 -k RTR 
- -t 0.436386259 -s 29 -d -1 -p message -e 32 -c 2 -a 0 -i 8 -k RTR
h -t 0.436386259 -s 29 -d -1 -p message -e 32 -c 2 -a 0 -i 8 -k RTR
+ -t 0.436701259 -s 29 -d -1 -p message -e 90 -c 2 -a 0 -i 8 -k MAC 
- -t 0.436701259 -s 29 -d -1 -p message -e 90 -c 2 -a 0 -i 8 -k MAC
h -t 0.436701259 -s 29 -d -1 -p message -e 90 -c 2 -a 0 -i 8 -k MAC
r -t 0.437421712 -s 23 -d -1 -p message -e 32 -c 2 -a 0 -i 8 -k MAC
r -t 0.437422027 -s 6 -d -1 -p message -e 32 -c 2 -a 0 -i 8 -k MAC
r -t 0.437422126 -s 8 -d -1 -p message -e 32 -c 2 -a 0 -i 8 -k MAC
r -t 0.437422314 -s 16 -d -1 -p message -e 32 -c 2 -a 0 -i 8 -k MAC
r -t 0.437446712 -s 23 -d -1 -p message -e 32 -c 2 -a 0 -i 8 -k RTR
r -t 0.437447027 -s 6 -d -1 -p message -e 32 -c 2 -a 0 -i 8 -k RTR
r -t 0.437447126 -s 8 -d -1 -p message -e 32 -c 2 -a 0 -i 8 -k RTR
r -t 0.437447314 -s 16 -d -1 -p message -e 32 -c 2 -a 0 -i 8 -k RTR
+ -t 0.470117073 -s 8 -d -1 -p message -e 32 -c 2 -a 0 -i 9 -k RTR 
- -t 0.470117073 -s 8 -d -1 -p message -e 32 -c 2 -a 0 -i 9 -k RTR
h -t 0.470117073 -s 8 -d -1 -p message -e 32 -c 2 -a 0 -i 9 -k RTR
+ -t 0.470652073 -s 8 -d -1 -p message -e 90 -c 2 -a 0 -i 9 -k MAC 
- -t 0.470652073 -s 8 -d -1 -p message -e 90 -c 2 -a 0 -i 9 -k MAC
h -t 0.470652073 -s 8 -d -1 -p message -e 90 -c 2 -a 0 -i 9 -k MAC
r -t 0.471372378 -s 16 -d -1 -p message -e 32 -c 2 -a 0 -i 9 -k MAC
r -t 0.471372608 -s 23 -d -1 -p message -e 32 -c 2 -a 0 -i 9 -k MAC
r -t 0.471372908 -s 12 -d -1 -p message -e 32 -c 2 -a 0 -i 9 -k MAC
r -t 0.471372926 -s 6 -d -1 -p message -e 32 -c 2 -a 0 -i 9 -k MAC
r -t 0.471372940 -s 29 -d -1 -p message -e 32 -c 2 -a 0 -i 9 -k MAC
r -t 0.471397378 -s 16 -d -1 -p message -e 32 -c 2 -a 0 -i 9 -k RTR
r -t 0.471397608 -s 23 -d -1 -p message -e 32 -c 2 -a 0 -i 9 -k RTR
r -t 0.471397908 -s 12 -d -1 -p message -e 32 -c 2 -a 0 -i 9 -k RTR
r -t 0.471397926 -s 6 -d -1 -p message -e 32 -c 2 -a 0 -i 9 -k RTR
r -t 0.471397940 -s 29 -d -1 -p message -e 32 -c 2 -a 0 -i 9 -k RTR
+ -t 0.521504883 -s 22 -d -1 -p message -e 32 -c 2 -a 0 -i 10 -k RTR 
- -t 0.521504883 -s 22 -d -1 -p message -e 32 -c 2 -a 0 -i 10 -k RTR
h -t 0.521504883 -s 22 -d -1 -p message -e 32 -c 2 -a 0 -i 10 -k RTR
+ -t 0.521659883 -s 22 -d -1 -p message -e 90 -c 2 -a 0 -i 10 -k MAC 
- -t 0.521659883 -s 22 -d -1 -p message -e 90 -c 2 -a 0 -i 10 -k MAC
h -t 0.521659883 -s 22 -d -1 -p message -e 90 -c 2 -a 0 -i 10 -k MAC
r -t 0.522380557 -s 27 -d -1 -p message -e 32 -c 2 -a 0 -i 10 -k MAC
r -t 0.522380557 -s 26 -d -1 -p message -e 32 -c 2 -a 0 -i 10 -k MAC
r -t 0.522380557 -s 25 -d -1 -p message -e 32 -c 2 -a 0 -i 10 -k MAC
r -t 0.522380930 -s 3 -d -1 -p message -e 32 -c 2 -a 0 -i 10 -k MAC
r -t 0.522381132 -s 1 -d -1 -p message -e 32 -c 2 -a 0 -i 10 -k MAC
r -t 0.522405557 -s 27 -d -1 -p message -e 32 -c 2 -a 0 -i 10 -k RTR
r -t 0.522405557 -s 26 -d -1 -p message -e 32 -c 2 -a 0 -i 10 -k RTR
r -t 0.522405557 -s 25 -d -1 -p message -e 32 -c 2 -a 0 -i 10 -k RTR
r -t 0.522405930 -s 3 -d -1 -p message -e 32 -c 2 -a 0 -i 10 -k RTR
r -t 0.522406132 -s 1 -d -1 -p message -e 32 -c 2 -a 0 -i 10 -k RTR
+ -t 0.556838879 -s 28 -d -1 -p cbr -e 512 -c 2 -a 0 -i 11 -k AGT 
- -t 0.556838879 -s 28 -d -1 -p cbr -e 512 -c 2 -a 0 -i 11 -k AGT
h -t 0.556838879 -s 28 -d -1 -p cbr -e 512 -c 2 -a 0 -i 11 -k AGT
+ -t 0.627186592 -s 10 -d -1 -p message -e 32 -c 2 -a 0 -i 12 -k RTR 
- -t 0.627186592 -s 10 -d -1 -p message -e 32 -c 2 -a 0 -i 12 -k RTR
h -t 0.627186592 -s 10 -d -1 -p message -e 32 -c 2 -a 0 -i 12 -k RTR
+ -t 0.627321592 -s 10 -d -1 -p message -e 90 -c 2 -a 0 -i 12 -k MAC 
- -t 0.627321592 -s 10 -d -1 -p message -e 90 -c 2 -a 0 -i 12 -k MAC
h -t 0.627321592 -s 10 -d -1 -p message -e 90 -c 2 -a 0 -i 12 -k MAC
r -t 0.628042298 -s 4 -d -1 -p message -e 32 -c 2 -a 0 -i 12 -k MAC
r -t 0.628042377 -s 5 -d -1 -p message -e 32 -c 2 -a 0 -i 12 -k MAC
r -t 0.628042613 -s 11 -d -1 -p message -e 32 -c 2 -a 0 -i 12 -k MAC
r -t 0.628042622 -s 9 -d -1 -p message -e 32 -c 2 -a 0 -i 12 -k MAC
r -t 0.628042792 -s 12 -d -1 -p message -e 32 -c 2 -a 0 -i 12 -k MAC
r -t 0.628067298 -s 4 -d -1 -p message -e 32 -c 2 -a 0 -i 12 -k RTR
r -t 0.628067377 -s 5 -d -1 -p message -e 32 -c 2 -a 0 -i 12 -k RTR
r -t 0.628067613 -s 11 -d -1 -p message -e 32 -c 2 -a 0 -i 12 -k RTR
r -t 0.628067622 -s 9 -d -1 -p message -e 32 -c 2 -a 0 -i 12 -k RTR
r -t 0.628067792 -s 12 -d -1 -p message -e 32 -c 2 -a 0 -i 12 -k RTR
+ -t 0.634670006 -s 6 -d -1 -p message -e 32 -c 2 -a 0 -i 13 -k RTR 
- -t 0.634670006 -s 6 -d -1 -p message -e 32 -c 2 -a 0 -i 13 -k RTR
h -t 0.634670006 -s 6 -d -1 -p message -e 32 -c 2 -a 0 -i 13 -k RTR
+ -t 0.634865006 -s 6 -d -1 -p message -e 90 -c 2 -a 0 -i 13 -k MAC 
- -t 0.634865006 -s 6 -d -1 -p message -e 90 -c 2 -a 0 -i 13 -k MAC
h -t 0.634865006 -s 6 -d -1 -p message -e 90 -c 2 -a 0 -i 13 -k MAC
r -t 0.635585453 -s 23 -d -1 -p message -e 32 -c 2 -a 0 -i 13 -k MAC
r -t 0.635585732 -s 12 -d -1 -p message -e 32 -c 2 -a 0 -i 13 -k MAC
r -t 0.635585774 -s 29 -d -1 -p message -e 32 -c 2 -a 0 -i 13 -k MAC
r -t 0.635585794 -s 16 -d -1 -p message -e 32 -c 2 -a 0 -i 13 -k MAC
r -t 0.635585860 -s 8 -d -1 -p message -e 32 -c 2 -a 0 -i 13 -k MAC
r -t 0.635585998 -s 4 -d -1 -p message -e 32 -c 2 -a 0 -i 13 -k MAC
r -t 0.635586093 -s 11 -d -1 -p message -e 32 -c 2 -a 0 -i 13 -k MAC
r -t 0.635610453 -s 23 -d -1 -p message -e 32 -c 2 -a 0 -i 13 -k RTR
r -t 0.635610732 -s 12 -d -1 -p message -e 32 -c 2 -a 0 -i 13 -k RTR
r -t 0.635610774 -s 29 -d -1 -p message -e 32 -c 2 -a 0 -i 13 -k RTR
r -t 0.635610794 -s 16 -d -1 -p message -e 32 -c 2 -a 0 -i 13 -k RTR
r -t 0.635610860 -s 8 -d -1 -p message -e 32 -c 2 -a 0 -i 13 -k RTR
r -t 0.635610998 -s 4 -d -1 -p message -e 32 -c 2 -a 0 -i 13 -k RTR
r -t 0.635611093 -s 11 -d -1 -p message -e 32 -c 2 -a 0 -i 13 -k RTR
+ -t 0.705637875 -s 21 -d -1 -p message -e 32 -c 2 -a 0 -i 14 -k RTR 
- -t 0.705637875 -s 21 -d -1 -p message -e 32 -c 2 -a 0 -i 14 -k RTR
h -t 0.705637875 -s 21 -d -1 -p message -e 32 -c 2 -a 0 -i 14 -k RTR
+ -t 0.706012875 -s 21 -d -1 -p message -e 90 -c 2 -a 0 -i 14 -k MAC 
- -t 0.706012875 -s 21 -d -1 -p message -e 90 -c 2 -a 0 -i 14 -k MAC
h -t 0.706012875 -s 21 -d -1 -p message -e 90 -c 2 -a 0 -i 14 -k MAC
r -t 0.706733711 -s 15 -d -1 -p message -e 32 -c 2 -a 0 -i 14 -k MAC
r -t 0.706734149 -s 5 -d -1 -p message -e 32 -c 2 -a 0 -i 14 -k MAC
r -t 0.706758711 -s 15 -d -1 -p message -e 32 -c 2 -a 0 -i 14 -k RTR
r -t 0.706759149 -s 5 -d -1 -p message -e 32 -c 2 -a 0 -i 14 -k RTR
+ -t 0.821435127 -s 23 -d -1 -p message -e 32 -c 2 -a 0 -i 15 -k RTR 
- -t 0.821435127 -s 23 -d -1 -p message -e 32 -c 2 -a 0 -i 15 -k RTR
h -t 0.821435127 -s 23 -d -1 -p message -e 32 -c 2 -a 0 -i 15 -k RTR
+ -t 0.821550127 -s 23 -d -1 -p message -e 90 -c 2 -a 0 -i 15 -k MAC 
- -t 0.821550127 -s 23 -d -1 -p message -e 90 -c 2 -a 0 -i 15 -k MAC
h -t 0.821550127 -s 23 -d -1 -p message -e 90 -c 2 -a 0 -i 15 -k MAC
r -t 0.822270574 -s 6 -d -1 -p message -e 32 -c 2 -a 0 -i 15 -k MAC
r -t 0.822270581 -s 29 -d -1 -p message -e 32 -c 2 -a 0 -i 15 -k MAC
r -t 0.822270663 -s 8 -d -1 -p message -e 32 -c 2 -a 0 -i 15 -k MAC
r -t 0.822270763 -s 16 -d -1 -p message -e 32 -c 2 -a 0 -i 15 -k MAC
r -t 0.822271018 -s 12 -d -1 -p message -e 32 -c 2 -a 0 -i 15 -k MAC
r -t 0.822295574 -s 6 -d -1 -p message -e 32 -c 2 -a 0 -i 15 -k RTR
r -t 0.822295581 -s 29 -d -1 -p message -e 32 -c 2 -a 0 -i 15 -k RTR
r -t 0.822295663 -s 8 -d -1 -p message -e 32 -c 2 -a 0 -i 15 -k RTR
r -t 0.822295763 -s 16 -d -1 -p message -e 32 -c 2 -a 0 -i 15 -k RTR
r -t 0.822296018 -s 12 -d -1 -p message -e 32 -c 2 -a 0 -i 15 -k RTR
+ -t 0.848147771 -s 17 -d -1 -p message -e 32 -c 2 -a 0 -i 16 -k RTR 
- -t 0.848147771 -s 17 -d -1 -p message -e 32 -c 2 -a 0 -i 16 -k RTR
h -t 0.848147771 -s 17 -d -1 -p message -e 32 -c 2 -a 0 -i 16 -k RTR
+ -t 0.848382771 -s 17 -d -1 -p message -e 90 -c 2 -a 0 -i 16 -k MAC 
- -t 0.848382771 -s 17 -d -1 -p message -e 90 -c 2 -a 0 -i 16 -k MAC
h -t 0.848382771 -s 17 -d -1 -p message -e 90 -c 2 -a 0 -i 16 -k MAC
r -t 0.849102906 -s 13 -d -1 -p message -e 32 -c 2 -a 0 -i 16 -k MAC
r -t 0.849103262 -s 18 -d -1 -p message -e 32 -c 2 -a 0 -i 16 -k MAC
r -t 0.849103347 -s 19 -d -1 -p message -e 32 -c 2 -a 0 -i 16 -k MAC
r -t 0.849103660 -s 7 -d -1 -p message -e 32 -c 2 -a 0 -i 16 -k MAC
r -t 0.849103734 -s 24 -d -1 -p message -e 32 -c 2 -a 0 -i 16 -k MAC
r -t 0.849103798 -s 9 -d -1 -p message -e 32 -c 2 -a 0 -i 16 -k MAC
r -t 0.849103871 -s 20 -d -1 -p message -e 32 -c 2 -a 0 -i 16 -k MAC
r -t 0.849127906 -s 13 -d -1 -p message -e 32 -c 2 -a 0 -i 16 -k RTR
r -t 0.849128262 -s 18 -d -1 -p message -e 32 -c 2 -a 0 -i 16 -k RTR
r -t 0.849128347 -s 19 -d -1 -p message -e 32 -c 2 -a 0 -i 16 -k RTR
r -t 0.849128660 -s 7 -d -1 -p message -e 32 -c 2 -a 0 -i 16 -k RTR
r -t 0.849128734 -s 24 -d -1 -p message -e 32 -c 2 -a 0 -i 16 -k RTR
r -t 0.849128798 -s 9 -d -1 -p message -e 32 -c 2 -a 0 -i 16 -k RTR
r -t 0.849128871 -s 20 -d -1 -p message -e 32 -c 2 -a 0 -i 16 -k RTR
+ -t 0.882674688 -s 4 -d -1 -p message -e 32 -c 2 -a 0 -i 17 -k RTR 
- -t 0.882674688 -s 4 -d -1 -p message -e 32 -c 2 -a 0 -i 17 -k RTR
h -t 0.882674688 -s 4 -d -1 -p message -e 32 -c 2 -a 0 -i 17 -k RTR
+ -t 0.882909688 -s 4 -d -1 -p message -e 90 -c 2 -a 0 -i 17 -k MAC 
- -t 0.882909688 -s 4 -d -1 -p message -e 90 -c 2 -a 0 -i 17 -k MAC
h -t 0.882909688 -s 4 -d -1 -p message -e 90 -c 2 -a 0 -i 17 -k MAC
r -t 0.883630198 -s 11 -d -1 -p message -e 32 -c 2 -a 0 -i 17 -k MAC
r -t 0.883630393 -s 10 -d -1 -p message -e 32 -c 2 -a 0 -i 17 -k MAC
r -t 0.883630416 -s 12 -d -1 -p message -e 32 -c 2 -a 0 -i 17 -k MAC
r -t 0.883630581 -s 5 -d -1 -p message -e 32 -c 2 -a 0 -i 17 -k MAC
r -t 0.883630680 -s 6 -d -1 -p message -e 32 -c 2 -a 0 -i 17 -k MAC
r -t 0.883630948 -s 16 -d -1 -p message -e 32 -c 2 -a 0 -i 17 -k MAC
r -t 0.883655198 -s 11 -d -1 -p message -e 32 -c 2 -a 0 -i 17 -k RTR
r -t 0.883655393 -s 10 -d -1 -p message -e 32 -c 2 -a 0 -i 17 -k RTR
r -t 0.883655416 -s 12 -d -1 -p message -e 32 -c 2 -a 0 -i 17 -k RTR
r -t 0.883655581 -s 5 -d -1 -p message -e 32 -c 2 -a 0 -i 17 -k RTR
r -t 0.883655680 -s 6 -d -1 -p message -e 32 -c 2 -a 0 -i 17 -k RTR
r -t 0.883655948 -s 16 -d -1 -p message -e 32 -c 2 -a 0 -i 17 -k RTR
+ -t 0.935449221 -s 25 -d -1 -p message -e 32 -c 2 -a 0 -i 18 -k RTR 
- -t 0.935449221 -s 25 -d -1 -p message -e 32 -c 2 -a 0 -i 18 -k RTR
h -t 0.935449221 -s 25 -d -1 -p message -e 32 -c 2 -a 0 -i 18 -k RTR
+ -t 0.935884221 -s 25 -d -1 -p message -e 90 -c 2 -a 0 -i 18 -k MAC 
- -t 0.935884221 -s 25 -d -1 -p message -e 90 -c 2 -a 0 -i 18 -k MAC
h -t 0.935884221 -s 25 -d -1 -p message -e 90 -c 2 -a 0 -i 18 -k MAC
r -t 0.936604221 -s 26 -d -1 -p message -e 32 -c 2 -a 0 -i 18 -k MAC
r -t 0.936604221 -s 27 -d -1 -p message -e 32 -c 2 -a 0 -i 18 -k MAC
r -t 0.936604895 -s 22 -d -1 -p message -e 32 -c 2 -a 0 -i 18 -k MAC
r -t 0.936629221 -s 26 -d -1 -p message -e 32 -c 2 -a 0 -i 18 -k RTR
r -t 0.936629221 -s 27 -d -1 -p message -e 32 -c 2 -a 0 -i 18 -k RTR
r -t 0.936629895 -s 22 -d -1 -p message -e 32 -c 2 -a 0 -i 18 -k RTR
+ -t 1.039009780 -s 24 -d -1 -p message -e 32 -c 2 -a 0 -i 19 -k RTR 
- -t 1.039009780 -s 24 -d -1 -p message -e 32 -c 2 -a 0 -i 19 -k RTR
h -t 1.039009780 -s 24 -d -1 -p message -e 32 -c 2 -a 0 -i 19 -k RTR
+ -t 1.039404780 -s 24 -d -1 -p message -e 90 -c 2 -a 0 -i 19 -k MAC 
- -t 1.039404780 -s 24 -d -1 -p message -e 90 -c 2 -a 0 -i 19 -k MAC
h -t 1.039404780 -s 24 -d -1 -p message -e 90 -c 2 -a 0 -i 19 -k MAC
r -t 1.040124997 -s 7 -d -1 -p message -e 32 -c 2 -a 0 -i 19 -k MAC
r -t 1.040125635 -s 13 -d -1 -p message -e 32 -c 2 -a 0 -i 19 -k MAC
r -t 1.040125644 -s 28 -d -1 -p message -e 32 -c 2 -a 0 -i 19 -k MAC
r -t 1.040125671 -s 19 -d -1 -p message -e 32 -c 2 -a 0 -i 19 -k MAC
r -t 1.040125742 -s 17 -d -1 -p message -e 32 -c 2 -a 0 -i 19 -k MAC
r -t 1.040125847 -s 18 -d -1 -p message -e 32 -c 2 -a 0 -i 19 -k MAC
r -t 1.040125982 -s 14 -d -1 -p message -e 32 -c 2 -a 0 -i 19 -k MAC
r -t 1.040149997 -s 7 -d -1 -p message -e 32 -c 2 -a 0 -i 19 -k RTR
r -t 1.040150635 -s 13 -d -1 -p message -e 32 -c 2 -a 0 -i 19 -k RTR
r -t 1.040150644 -s 28 -d -1 -p message -e 32 -c 2 -a 0 -i 19 -k RTR
r -t 1.040150671 -s 19 -d -1 -p message -e 32 -c 2 -a 0 -i 19 -k RTR
r -t 1.040150742 -s 17 -d -1 -p message -e 32 -c 2 -a 0 -i 19 -k RTR
r -t 1.040150847 -s 18 -d -1 -p message -e 32 -c 2 -a 0 -i 19 -k RTR
r -t 1.040150982 -s 14 -d -1 -p message -e 32 -c 2 -a 0 -i 19 -k RTR
+ -t 1.119657716 -s 1 -d -1 -p message -e 32 -c 2 -a 0 -i 20 -k RTR 
- -t 1.119657716 -s 1 -d -1 -p message -e 32 -c 2 -a 0 -i 20 -k RTR
h -t 1.119657716 -s 1 -d -1 -p message -e 32 -c 2 -a 0 -i 20 -k RTR
+ -t 1.119832716 -s 1 -d -1 -p message -e 90 -c 2 -a 0 -i 20 -k MAC 
- -t 1.119832716 -s 1 -d -1 -p message -e 90 -c 2 -a 0 -i 20 -k MAC
h -t 1.119832716 -s 1 -d -1 -p message -e 90 -c 2 -a 0 -i 20 -k MAC
r -t 1.120553317 -s 3 -d -1 -p message -e 32 -c 2 -a 0 -i 20 -k MAC
r -t 1.120553536 -s 2 -d -1 -p message -e 32 -c 2 -a 0 -i 20 -k MAC
r -t 1.120553706 -s 0 -d -1 -p message -e 32 -c 2 -a 0 -i 20 -k MAC
r -t 1.120553953 -s 14 -d -1 -p message -e 32 -c 2 -a 0 -i 20 -k MAC
r -t 1.120553965 -s 22 -d -1 -p message -e 32 -c 2 -a 0 -i 20 -k MAC
r -t 1.120578317 -s 3 -d -1 -p message -e 32 -c 2 -a 0 -i 20 -k RTR
r -t 1.120578536 -s 2 -d -1 -p message -e 32 -c 2 -a 0 -i 20 -k RTR
r -t 1.120578706 -s 0 -d -1 -p message -e 32 -c 2 -a 0 -i 20 -k RTR
r -t 1.120578953 -s 14 -d -1 -p message -e 32 -c 2 -a 0 -i 20 -k RTR
r -t 1.120578965 -s 22 -d -1 -p message -e 32 -c 2 -a 0 -i 20 -k RTR
+ -t 1.277890258 -s 9 -d -1 -p message -e 32 -c 2 -a 0 -i 21 -k RTR 
- -t 1.277890258 -s 9 -d -1 -p message -e 32 -c 2 -a 0 -i 21 -k RTR
h -t 1.277890258 -s 9 -d -1 -p message -e 32 -c 2 -a 0 -i 21 -k RTR
+ -t 1.278565258 -s 9 -d -1 -p message -e 90 -c 2 -a 0 -i 21 -k MAC 
- -t 1.278565258 -s 9 -d -1 -p message -e 90 -c 2 -a 0 -i 21 -k MAC
h -t 1.278565258 -s 9 -d -1 -p message -e 90 -c 2 -a 0 -i 21 -k MAC
r -t 1.279286262 -s 13 -d -1 -p message -e 32 -c 2 -a 0 -i 21 -k MAC
r -t 1.279286285 -s 17 -d -1 -p message -e 32 -c 2 -a 0 -i 21 -k MAC
r -t 1.279286289 -s 10 -d -1 -p message -e 32 -c 2 -a 0 -i 21 -k MAC
r -t 1.279286480 -s 14 -d -1 -p message -e 32 -c 2 -a 0 -i 21 -k MAC
r -t 1.279286522 -s 20 -d -1 -p message -e 32 -c 2 -a 0 -i 21 -k MAC
r -t 1.279286530 -s 2 -d -1 -p message -e 32 -c 2 -a 0 -i 21 -k MAC
r -t 1.279311262 -s 13 -d -1 -p message -e 32 -c 2 -a 0 -i 21 -k RTR
r -t 1.279311285 -s 17 -d -1 -p message -e 32 -c 2 -a 0 -i 21 -k RTR
r -t 1.279311289 -s 10 -d -1 -p message -e 32 -c 2 -a 0 -i 21 -k RTR
r -t 1.279311480 -s 14 -d -1 -p message -e 32 -c 2 -a 0 -i 21 -k RTR
r -t 1.279311522 -s 20 -d -1 -p message -e 32 -c 2 -a 0 -i 21 -k RTR
r -t 1.279311530 -s 2 -d -1 -p message -e 32 -c 2 -a 0 -i 21 -k RTR
+ -t 1.281327089 -s 14 -d -1 -p message -e 32 -c 2 -a 0 -i 22 -k RTR 
- -t 1.281327089 -s 14 -d -1 -p message -e 32 -c 2 -a 0 -i 22 -k RTR
h -t 1.281327089 -s 14 -d -1 -p message -e 32 -c 2 -a 0 -i 22 -k RTR
+ -t 1.281462089 -s 14 -d -1 -p message -e 90 -c 2 -a 0 -i 22 -k MAC 
- -t 1.281462089 -s 14 -d -1 -p message -e 90 -c 2 -a 0 -i 22 -k MAC
h -t 1.281462089 -s 14 -d -1 -p message -e 90 -c 2 -a 0 -i 22 -k MAC
r -t 1.282182370 -s 0 -d -1 -p message -e 32 -c 2 -a 0 -i 22 -k MAC
r -t 1.282182538 -s 2 -d -1 -p message -e 32 -c 2 -a 0 -i 22 -k MAC
r -t 1.282182733 -s 28 -d -1 -p message -e 32 -c 2 -a 0 -i 22 -k MAC
r -t 1.282183089 -s 7 -d -1 -p message -e 32 -c 2 -a 0 -i 22 -k MAC
r -t 1.282183291 -s 24 -d -1 -p message -e 32 -c 2 -a 0 -i 22 -k MAC
r -t 1.282183311 -s 9 -d -1 -p message -e 32 -c 2 -a 0 -i 22 -k MAC
r -t 1.282183327 -s 1 -d -1 -p message -e 32 -c 2 -a 0 -i 22 -k MAC
r -t 1.282183414 -s 13 -d -1 -p message -e 32 -c 2 -a 0 -i 22 -k MAC
r -t 1.282207370 -s 0 -d -1 -p message -e 32 -c 2 -a 0 -i 22 -k RTR
r -t 1.282207538 -s 2 -d -1 -p message -e 32 -c 2 -a 0 -i 22 -k RTR
r -t 1.282207733 -s 28 -d -1 -p message -e 32 -c 2 -a 0 -i 22 -k RTR
r -t 1.282208089 -s 7 -d -1 -p message -e 32 -c 2 -a 0 -i 22 -k RTR