M 0.0 nn 40 x 1000 y 1000 rp DSDV
M 0.0 sc dsdv-update.tcl cp trafic seed 1.0
M 0.0 prop Propagation/TwoRayGround ant Antenna/OmniAntenna
M 0.00000 0 (99.65, 475.60, 0.00), (99.65, 475.60), 0.00
M 0.00000 1 (292.35, 30.19, 0.00), (292.35, 30.19), 0.00
M 0.00000 2 (56.96, 782.35, 0.00), (56.96, 782.35), 0.00
M 0.00000 3 (677.39, 393.65, 0.00), (677.39, 393.65), 0.00
M 0.00000 4 (491.65, 364.53, 0.00), (491.65, 364.53), 0.00
M 0.00000 5 (516.65, 782.35, 0.00), (516.65, 782.35), 0.00
M 0.00000 6 (533.13, 491.65, 0.00), (533.13, 491.65), 0.00
M 0.00000 7 (194.35, 951.84, 0.00), (194.35, 951.84), 0.00
M 0.00000 8 (479.92, 197.65, 0.00), (479.92, 197.65), 0.00
M 0.00000 9 (99.65, 431.85, 0.00), (99.65, 431.85), 0.00
M 0.00000 10 (1.65, 44.26, 0.00), (1.65, 44.26), 0.00
M 0.00000 11 (390.35, 308.70, 0.00), (390.35, 308.70), 0.00
M 0.00000 12 (782.35, 105.89, 0.00), (782.35, 105.89), 0.00
M 0.00000 13 (1.65, 322.12, 0.00), (1.65, 322.12), 0.00
M 0.00000 14 (488.35, 661.50, 0.00), (488.35, 661.50), 0.00
M 0.00000 15 (981.65, 18.41, 0.00), (981.65, 18.41), 0.00
M 0.00000 16 (782.35, 8.74, 0.00), (782.35, 8.74), 0.00
M 0.00000 17 (99.65, 314.98, 0.00), (99.65, 314.98), 0.00
M 0.00000 18 (109.83, 880.35, 0.00), (109.83, 880.35), 0.00
M 0.00000 19 (460.64, 978.35, 0.00), (460.64, 978.35), 0.00
M 0.00000 20 (650.11, 393.65, 0.00), (650.11, 393.65), 0.00
M 0.00000 21 (42.37, 488.35, 0.00), (42.37, 488.35), 0.00
M 0.00000 22 (165.65, 96.35, 0.00), (165.65, 96.35), 0.00
M 0.00000 23 (194.35, 444.91, 0.00), (194.35, 444.91), 0.00
M 0.00000 24 (292.35, 300.68, 0.00), (292.35, 300.68), 0.00
M 0.00000 25 (491.65, 765.58, 0.00), (491.65, 765.58), 0.00
M 0.00000 26 (17.07, 1.65, 0.00), (17.07, 1.65), 0.00
M 0.00000 27 (1.65, 749.26, 0.00), (1.65, 749.26), 0.00
M 0.00000 28 (684.35, 387.17, 0.00), (684.35, 387.17), 0.00
M 0.00000 29 (96.35, 328.96, 0.00), (96.35, 328.96), 0.00
M 0.00000 30 (981.65, 702.21, 0.00), (981.65, 702.21), 0.00
M 0.00000 31 (99.65, 270.62, 0.00), (99.65, 270.62), 0.00
M 0.00000 32 (769.10, 1.65, 0.00), (769.10, 1.65), 0.00
M 0.00000 33 (662.92, 390.35, 0.00), (662.92, 390.35), 0.00
M 0.00000 34 (168.15, 1.65, 0.00), (168.15, 1.65), 0.00
M 0.00000 35 (529.75, 785.65, 0.00), (529.75, 785.65), 0.00
M 0.00000 36 (785.65, 133.10, 0.00), (785.65, 133.10), 0.00
M 0.00000 37 (519.95, 978.35, 0.00), (519.95, 978.35), 0.00
M 0.00000 0 (99.65, 475.60, 0.00), (99.65, 475.60), 40.00
M 0.00000 1 (292.35, 30.19, 0.00), (292.35, 30.19), 16.49
s 0.010141804 _0_ RTR  --- 0 message 32 [0 0 0 0] ------- [0:255 -1:255 32 0] 
s 0.010796804 _0_ MAC  --- 0 message 90 [0 ffffffff 0 800] ------- [0:255 -1:255 32 0] 
r 0.011516950 _9_ MAC  --- 0 message 32 [0 ffffffff 0 800] ------- [0:255 -1:255 32 0] 
r 0.011517000 _21_ MAC  --- 0 message 32 [0 ffffffff 0 800] ------- [0:255 -1:255 32 0] 
r 0.011517136 _23_ MAC  --- 0 message 32 [0 ffffffff 0 800] ------- [0:255 -1:255 32 0] 
r 0.011517293 _29_ MAC  --- 0 message 32 [0 ffffffff 0 800] ------- [0:255 -1:255 32 0] 
r 0.011517339 _17_ MAC  --- 0 message 32 [0 ffffffff 0 800] ------- [0:255 -1:255 32 0] 
r 0.011517411 _13_ MAC  --- 0 message 32 [0 ffffffff 0 800] ------- [0:255 -1:255 32 0] 
r 0.011517487 _31_ MAC  --- 0 message 32 [0 ffffffff 0 800] ------- [0:255 -1:255 32 0] 
r 0.011517671 _24_ MAC  --- 0 message 32 [0 ffffffff 0 800] ------- [0:255 -1:255 32 0] 
r 0.011517773 _27_ MAC  --- 0 message 32 [0 ffffffff 0 800] ------- [0:255 -1:255 32 0] 
r 0.011517836 _2_ MAC  --- 0 message 32 [0 ffffffff 0 800] ------- [0:255 -1:255 32 0] 
r 0.011517921 _11_ MAC  --- 0 message 32 [0 ffffffff 0 800] ------- [0:255 -1:255 32 0] 
r 0.011518087 _22_ MAC  --- 0 message 32 [0 ffffffff 0 800] ------- [0:255 -1:255 32 0] 
r 0.011541950 _9_ RTR  --- 0 message 32 [0 ffffffff 0 800] ------- [0:255 -1:255 32 0] 
r 0.011542000 _21_ RTR  --- 0 message 32 [0 ffffffff 0 800] ------- [0:255 -1:255 32 0] 
r 0.011542136 _23_ RTR  --- 0 message 32 [0 ffffffff 0 800] ------- [0:255 -1:255 32 0] 
r 0.011542293 _29_ RTR  --- 0 message 32 [0 ffffffff 0 800] ------- [0:255 -1:255 32 0] 
r 0.011542339 _17_ RTR  --- 0 message 32 [0 ffffffff 0 800] ------- [0:255 -1:255 32 0] 
r 0.011542411 _13_ RTR  --- 0 message 32 [0 ffffffff 0 800] ------- [0:255 -1:255 32 0] 
r 0.011542487 _31_ RTR  --- 0 message 32 [0 ffffffff 0 800] ------- [0:255 -1:255 32 0] 
r 0.011542671 _24_ RTR  --- 0 message 32 [0 ffffffff 0 800] ------- [0:255 -1:255 32 0] 
r 0.011542773 _27_ RTR  --- 0 message 32 [0 ffffffff 0 800] ------- [0:255 -1:255 32 0] 
r 0.011542836 _2_ RTR  --- 0 message 32 [0 ffffffff 0 800] ------- [0:255 -1:255 32 0] 
r 0.011542921 _11_ RTR  --- 0 message 32 [0 ffffffff 0 800] ------- [0:255 -1:255 32 0] 
r 0.011543087 _22_ RTR  --- 0 message 32 [0 ffffffff 0 800] ------- [0:255 -1:255 32 0] 
s 0.028517405 _2_ RTR  --- 1 message 32 [0 0 0 0] ------- [2:255 -1:255 32 0] 
s 0.029092405 _2_ MAC  --- 1 message 90 [0 ffffffff 2 800] ------- [2:255 -1:255 32 0] 
r 0.029812620 _27_ MAC  --- 1 message 32 [0 ffffffff 2 800] ------- [2:255 -1:255 32 0] 
r 0.029812776 _18_ MAC  --- 1 message 32 [0 ffffffff 2 800] ------- [2:255 -1:255 32 0] 
r 0.029813132 _7_ MAC  --- 1 message 32 [0 ffffffff 2 800] ------- [2:255 -1:255 32 0] 
r 0.029813155 _38_ MAC  --- 1 message 32 [0 ffffffff 2 800] ------- [2:255 -1:255 32 0] 
r 0.029813386 _21_ MAC  --- 1 message 32 [0 ffffffff 2 800] ------- [2:255 -1:255 32 0] 
r 0.029813437 _0_ MAC  --- 1 message 32 [0 ffffffff 2 800] ------- [2:255 -1:255 32 0] 
r 0.029813582 _9_ MAC  --- 1 message 32 [0 ffffffff 2 800] ------- [2:255 -1:255 32 0] 
r 0.029813619 _23_ MAC  --- 1 message 32 [0 ffffffff 2 800] ------- [2:255 -1:255 32 0] 
r 0.029837620 _27_ RTR  --- 1 message 32 [0 ffffffff 2 800] ------- [2:255 -1:255 32 0] 
r 0.029837776 _18_ RTR  --- 1 message 32 [0 ffffffff 2 800] ------- [2:255 -1:255 32 0] 
r 0.029838132 _7_ RTR  --- 1 message 32 [0 ffffffff 2 800] ------- [2:255 -1:255 32 0] 
r 0.029838155 _38_ RTR  --- 1 message 32 [0 ffffffff 2 800] ------- [2:255 -1:255 32 0] 
r 0.029838386 _21_ RTR  --- 1 message 32 [0 ffffffff 2 800] ------- [2:255 -1:255 32 0] 
r 0.029838437 _0_ RTR  --- 1 message 32 [0 ffffffff 2 800] ------- [2:255 -1:255 32 0] 
r 0.029838582 _9_ RTR  --- 1 message 32 [0 ffffffff 2 800] ------- [2:255 -1:255 32 0] 
r 0.029838619 _23_ RTR  --- 1 message 32 [0 ffffffff 2 800] ------- [2:255 -1:255 32 0] 
s 0.092275354 _13_ RTR  --- 2 message 32 [0 0 0 0] ------- [13:255 -1:255 32 0] 
s 0.092830354 _13_ MAC  --- 2 message 90 [0 ffffffff d 800] ------- [13:255 -1:255 32 0] 
r 0.093550671 _29_ MAC  --- 2 message 32 [0 ffffffff d 800] ------- [13:255 -1:255 32 0] 
r 0.093550682 _17_ MAC  --- 2 message 32 [0 ffffffff d 800] ------- [13:255 -1:255 32 0] 
r 0.093550723 _31_ MAC  --- 2 message 32 [0 ffffffff d 800] ------- [13:255 -1:255 32 0] 
r 0.093550845 _9_ MAC  --- 2 message 32 [0 ffffffff d 800] ------- [13:255 -1:255 32 0] 
r 0.093550925 _21_ MAC  --- 2 message 32 [0 ffffffff d 800] ------- [13:255 -1:255 32 0] 
r 0.093550961 _0_ MAC  --- 2 message 32 [0 ffffffff d 800] ------- [13:255 -1:255 32 0] 
r 0.093551116 _23_ MAC  --- 2 message 32 [0 ffffffff d 800] ------- [13:255 -1:255 32 0] 
r 0.093551281 _10_ MAC  --- 2 message 32 [0 ffffffff d 800] ------- [13:255 -1:255 32 0] 
r 0.093551285 _22_ MAC  --- 2 message 32 [0 ffffffff d 800] ------- [13:255 -1:255 32 0] 
r 0.093551326 _24_ MAC  --- 2 message 32 [0 ffffffff d 800] ------- [13:255 -1:255 32 0] 
r 0.093551424 _26_ MAC  --- 2 message 32 [0 ffffffff d 800] ------- [13:255 -1:255 32 0] 
r 0.093551558 _34_ MAC  --- 2 message 32 [0 ffffffff d 800] ------- [13:255 -1:255 32 0] 
r 0.093551651 _11_ MAC  --- 2 message 32 [0 ffffffff d 800] ------- [13:255 -1:255 32 0] 
r 0.093575671 _29_ RTR  --- 2 message 32 [0 ffffffff d 800] ------- [13:255 -1:255 32 0] 
r 0.093575682 _17_ RTR  --- 2 message 32 [0 ffffffff d 800] ------- [13:255 -1:255 32 0] 
r 0.093575723 _31_ RTR  --- 2 message 32 [0 ffffffff d 800] ------- [13:255 -1:255 32 0] 
r 0.093575845 _9_ RTR  --- 2 message 32 [0 ffffffff d 800] ------- [13:255 -1:255 32 0] 
r 0.093575925 _21_ RTR  --- 2 message 32 [0 ffffffff d 800] ------- [13:255 -1:255 32 0] 
r 0.093575961 _0_ RTR  --- 2 message 32 [0 ffffffff d 800] ------- [13:255 -1:255 32 0] 
r 0.093576116 _23_ RTR  --- 2 message 32 [0 ffffffff d 800] ------- [13:255 -1:255 32 0] 
r 0.093576281 _10_ RTR  --- 2 message 32 [0 ffffffff d 800] ------- [13:255 -1:255 32 0] 
r 0.093576285 _22_ RTR  --- 2 message 32 [0 ffffffff d 800] ------- [13:255 -1:255 32 0] 
r 0.093576326 _24_ RTR  --- 2 message 32 [0 ffffffff d 800] ------- [13:255 -1:255 32 0] 
r 0.093576424 _26_ RTR  --- 2 message 32 [0 ffffffff d 800] ------- [13:255 -1:255 32 0] 
r 0.093576558 _34_ RTR  --- 2 message 32 [0 ffffffff d 800] ------- [13:255 -1:255 32 0] 
r 0.093576651 _11_ RTR  --- 2 message 32 [0 ffffffff d 800] ------- [13:255 -1:255 32 0] 
s 0.185011899 _3_ RTR  --- 3 message 32 [0 0 0 0] ------- [3:255 -1:255 32 0] 
s 0.185246899 _3_ MAC  --- 3 message 90 [0 ffffffff 3 800] ------- [3:255 -1:255 32 0] 
r 0.185966931 _28_ MAC  --- 3 message 32 [0 ffffffff 3 800] ------- [3:255 -1:255 32 0] 
r 0.185966949 _33_ MAC  --- 3 message 32 [0 ffffffff 3 800] ------- [3:255 -1:255 32 0] 
r 0.185966990 _20_ MAC  --- 3 message 32 [0 ffffffff 3 800] ------- [3:255 -1:255 32 0] 
r 0.185967481 _6_ MAC  --- 3 message 32 [0 ffffffff 3 800] ------- [3:255 -1:255 32 0] 
r 0.185967526 _4_ MAC  --- 3 message 32 [0 ffffffff 3 800] ------- [3:255 -1:255 32 0] 
r 0.185967827 _8_ MAC  --- 3 message 32 [0 ffffffff 3 800] ------- [3:255 -1:255 32 0] 
r 0.185967840 _36_ MAC  --- 3 message 32 [0 ffffffff 3 800] ------- [3:255 -1:255 32 0] 
r 0.185967897 _11_ MAC  --- 3 message 32 [0 ffffffff 3 800] ------- [3:255 -1:255 32 0] 
r 0.185967920 _12_ MAC  --- 3 message 32 [0 ffffffff 3 800] ------- [3:255 -1:255 32 0] 
r 0.185967992 _14_ MAC  --- 3 message 32 [0 ffffffff 3 800] ------- [3:255 -1:255 32 0] 
r 0.185968220 _24_ MAC  --- 3 message 32 [0 ffffffff 3 800] ------- [3:255 -1:255 32 0] 
r 0.185968229 _16_ MAC  --- 3 message 32 [0 ffffffff 3 800] ------- [3:255 -1:255 32 0] 
r 0.185991931 _28_ RTR  --- 3 message 32 [0 ffffffff 3 800] ------- [3:255 -1:255 32 0] 
r 0.185991949 _33_ RTR  --- 3 message 32 [0 ffffffff 3 800] ------- [3:255 -1:255 32 0] 
r 0.185991990 _20_ RTR  --- 3 message 32 [0 ffffffff 3 800] ------- [3:255 -1:255 32 0] 
r 0.185992481 _6_ RTR  --- 3 message 32 [0 ffffffff 3 800] ------- [3:255 -1:255 32 0] 
r 0.185992526 _4_ RTR  --- 3 message 32 [0 ffffffff 3 800] ------- [3:255 -1:255 32 0] 
r 0.185992827 _8_ RTR  --- 3 message 32 [0 ffffffff 3 800] ------- [3:255 -1:255 32 0] 
r 0.185992840 _36_ RTR  --- 3 message 32 [0 ffffffff 3 800] ------- [3:255 -1:255 32 0] 
r 0.185992897 _11_ RTR  --- 3 message 32 [0 ffffffff 3 800] ------- [3:255 -1:255 32 0] 
r 0.185992920 _12_ RTR  --- 3 message 32 [0 ffffffff 3 800] ------- [3:255 -1:255 32 0] 
r 0.185992992 _14_ RTR  --- 3 message 32 [0 ffffffff 3 800] ------- [3:255 -1:255 32 0] 
r 0.185993220 _24_ RTR  --- 3 message 32 [0 ffffffff 3 800] ------- [3:255 -1:255 32 0] 
r 0.185993229 _16_ RTR  --- 3 message 32 [0 ffffffff 3 800] ------- [3:255 -1:255 32 0] 
s 0.188553284 _19_ RTR  --- 4 message 32 [0 0 0 0] ------- [19:255 -1:255 32 0] 
s 0.188628284 _19_ MAC  --- 4 message 90 [0 ffffffff 13 800] ------- [19:255 -1:255 32 0] 
r 0.189348482 _37_ MAC  --- 4 message 32 [0 ffffffff 13 800] ------- [19:255 -1:255 32 0] 
r 0.189348963 _5_ MAC  --- 4 message 32 [0 ffffffff 13 800] ------- [19:255 -1:255 32 0] 
r 0.189348966 _35_ MAC  --- 4 message 32 [0 ffffffff 13 800] ------- [19:255 -1:255 32 0] 
r 0.189349001 _25_ MAC  --- 4 message 32 [0 ffffffff 13 800] ------- [19:255 -1:255 32 0] 
r 0.189349176 _7_ MAC  --- 4 message 32 [0 ffffffff 13 800] ------- [19:255 -1:255 32 0] 
r 0.189349344 _14_ MAC  --- 4 message 32 [0 ffffffff 13 800] ------- [19:255 -1:255 32 0] 
r 0.189349498 _18_ MAC  --- 4 message 32 [0 ffffffff 13 800] ------- [19:255 -1:255 32 0] 
r 0.189373482 _37_ RTR  --- 4 message 32 [0 ffffffff 13 800] ------- [19:255 -1:255 32 0] 
r 0.189373963 _5_ RTR  --- 4 message 32 [0 ffffffff 13 800] ------- [19:255 -1:255 32 0] 
r 0.189373966 _35_ RTR  --- 4 message 32 [0 ffffffff 13 800] ------- [19:255 -1:255 32 0] 
r 0.189374001 _25_ RTR  --- 4 message 32 [0 ffffffff 13 800] ------- [19:255 -1:255 32 0] 
r 0.189374176 _7_ RTR  --- 4 message 32 [0 ffffffff 13 800] ------- [19:255 -1:255 32 0] 
r 0.189374344 _14_ RTR  --- 4 message 32 [0 ffffffff 13 800] ------- [19:255 -1:255 32 0] 
r 0.189374498 _18_ RTR  --- 4 message 32 [0 ffffffff 13 800] ------- [19:255 -1:255 32 0] 
s 0.227865106 _36_ RTR  --- 5 message 32 [0 0 0 0] ------- [36:255 -1:255 32 0] 
s 0.228180106 _36_ MAC  --- 5 message 90 [0 ffffffff 24 800] ------- [36:255 -1:255 32 0] 
r 0.228900197 _12_ MAC  --- 5 message 32 [0 ffffffff 24 800] ------- [36:255 -1:255 32 0] 
r 0.228900520 _16_ MAC  --- 5 message 32 [0 ffffffff 24 800] ------- [36:255 -1:255 32 0] 
r 0.228900547 _32_ MAC  --- 5 message 32 [0 ffffffff 24 800] ------- [36:255 -1:255 32 0] 
r 0.228900863 _15_ MAC  --- 5 message 32 [0 ffffffff 24 800] ------- [36:255 -1:255 32 0] 
r 0.228900947 _39_ MAC  --- 5 message 32 [0 ffffffff 24 800] ------- [36:255 -1:255 32 0] 
r 0.228901017 _28_ MAC  --- 5 message 32 [0 ffffffff 24 800] ------- [36:255 -1:255 32 0] 
r 0.228901046 _3_ MAC  --- 5 message 32 [0 ffffffff 24 800] ------- [36:255 -1:255 32 0] 
r 0.228901056 _33_ MAC  --- 5 message 32 [0 ffffffff 24 800] ------- [36:255 -1:255 32 0] 
r 0.228901085 _20_ MAC  --- 5 message 32 [0 ffffffff 24 800] ------- [36:255 -1:255 32 0] 
r 0.228901147 _8_ MAC  --- 5 message 32 [0 ffffffff 24 800] ------- [36:255 -1:255 32 0] 
r 0.228901353 _4_ MAC  --- 5 message 32 [0 ffffffff 24 800] ------- [36:255 -1:255 32 0] 
r 0.228925197 _12_ RTR  --- 5 message 32 [0 ffffffff 24 800] ------- [36:255 -1:255 32 0] 
r 0.228925520 _16_ RTR  --- 5 message 32 [0 ffffffff 24 800] ------- [36:255 -1:255 32 0] 
r 0.228925547 _32_ RTR  --- 5 message 32 [0 ffffffff 24 800] ------- [36:255 -1:255 32 0] 
r 0.228925863 _15_ RTR  --- 5 message 32 [0 ffffffff 24 800] ------- [36:255 -1:255 32 0] 
r 0.228925947 _39_ RTR  --- 5 message 32 [0 ffffffff 24 800] ------- [36:255 -1:255 32 0] 
r 0.228926017 _28_ RTR  --- 5 message 32 [0 ffffffff 24 800] ------- [36:255 -1:255 32 0] 
r 0.228926046 _3_ RTR  --- 5 message 32 [0 ffffffff 24 800] ------- [36:255 -1:255 32 0] 
r 0.228926056 _33_ RTR  --- 5 message 32 [0 ffffffff 24 800] ------- [36:255 -1:255 32 0] 
r 0.228926085 _20_ RTR  --- 5 message 32 [0 ffffffff 24 800] ------- [36:255 -1:255 32 0] 
r 0.228926147 _8_ RTR  --- 5 message 32 [0 ffffffff 24 800] ------- [36:255 -1:255 32 0] 
r 0.228926353 _4_ RTR  --- 5 message 32 [0 ffffffff 24 800] ------- [36:255 -1:255 32 0] 
s 0.229683837 _15_ RTR  --- 6 message 32 [0 0 0 0] ------- [15:255 -1:255 32 0] 
s 0.230058837 _15_ MAC  --- 6 message 90 [0 ffffffff f 800] ------- [15:255 -1:255 32 0] 
r 0.230778924 _39_ MAC  --- 6 message 32 [0 ffffffff f 800] ------- [15:255 -1:255 32 0] 
r 0.230779503 _16_ MAC  --- 6 message 32 [0 ffffffff f 800] ------- [15:255 -1:255 32 0] 
r 0.230779548 _32_ MAC  --- 6 message 32 [0 ffffffff f 800] ------- [15:255 -1:255 32 0] 
r 0.230779563 _12_ MAC  --- 6 message 32 [0 ffffffff f 800] ------- [15:255 -1:255 32 0] 
r 0.230779594 _36_ MAC  --- 6 message 32 [0 ffffffff f 800] ------- [15:255 -1:255 32 0] 
r 0.230803924 _39_ RTR  --- 6 message 32 [0 ffffffff f 800] ------- [15:255 -1:255 32 0] 
r 0.230804503 _16_ RTR  --- 6 message 32 [0 ffffffff f 800] ------- [15:255 -1:255 32 0] 
r 0.230804548 _32_ RTR  --- 6 message 32 [0 ffffffff f 800] ------- [15:255 -1:255 32 0] 
r 0.230804563 _12_ RTR  --- 6 message 32 [0 ffffffff f 800] ------- [15:255 -1:255 32 0] 
r 0.230804594 _36_ RTR  --- 6 message 32 [0 ffffffff f 800] ------- [15:255 -1:255 32 0] 
s 0.328792147 _12_ RTR  --- 7 message 32 [0 0 0 0] ------- [12:255 -1:255 32 0] 
s 0.329067147 _12_ MAC  --- 7 message 90 [0 ffffffff c 800] ------- [12:255 -1:255 32 0] 
r 0.329787239 _36_ MAC  --- 7 message 32 [0 ffffffff c 800] ------- [12:255 -1:255 32 0] 
r 0.329787471 _16_ MAC  --- 7 message 32 [0 ffffffff c 800] ------- [12:255 -1:255 32 0] 
r 0.329787498 _32_ MAC  --- 7 message 32 [0 ffffffff c 800] ------- [12:255 -1:255 32 0] 
r 0.329787873 _15_ MAC  --- 7 message 32 [0 ffffffff c 800] ------- [12:255 -1:255 32 0] 
r 0.329787954 _39_ MAC  --- 7 message 32 [0 ffffffff c 800] ------- [12:255 -1:255 32 0] 
r 0.329788140 _28_ MAC  --- 7 message 32 [0 ffffffff c 800] ------- [12:255 -1:255 32 0] 
r 0.329788168 _3_ MAC  --- 7 message 32 [0 ffffffff c 800] ------- [12:255 -1:255 32 0] 
r 0.329788176 _33_ MAC  --- 7 message 32 [0 ffffffff c 800] ------- [12:255 -1:255 32 0] 
r 0.329788201 _8_ MAC  --- 7 message 32 [0 ffffffff c 800] ------- [12:255 -1:255 32 0] 
r 0.329788203 _20_ MAC  --- 7 message 32 [0 ffffffff c 800] ------- [12:255 -1:255 32 0] 
r 0.329788444 _4_ MAC  --- 7 message 32 [0 ffffffff c 800] ------- [12:255 -1:255 32 0] 
r 0.329812239 _36_ RTR  --- 7 message 32 [0 ffffffff c 800] ------- [12:255 -1:255 32 0] 
r 0.329812471 _16_ RTR  --- 7 message 32 [0 ffffffff c 800] ------- [12:255 -1:255 32 0] 
r 0.329812498 _32_ RTR  --- 7 message 32 [0 ffffffff c 800] ------- [12:255 -1:255 32 0] 
r 0.329812873 _15_ RTR  --- 7 message 32 [0 ffffffff c 800] ------- [12:255 -1:255 32 0] 
r 0.329812954 _39_ RTR  --- 7 message 32 [0 ffffffff c 800] ------- [12:255 -1:255 32 0] 
r 0.329813140 _28_ RTR  --- 7 message 32 [0 ffffffff c 800] ------- [12:255 -1:255 32 0] 
r 0.329813168 _3_ RTR  --- 7 message 32 [0 ffffffff c 800] ------- [12:255 -1:255 32 0] 
r 0.329813176 _33_ RTR  --- 7 message 32 [0 ffffffff c 800] ------- [12:255 -1:255 32 0] 
r 0.329813201 _8_ RTR  --- 7 message 32 [0 ffffffff c 800] ------- [12:255 -1:255 32 0] 
r 0.329813203 _20_ RTR  --- 7 message 32 [0 ffffffff c 800] ------- [12:255 -1:255 32 0] 
r 0.329813444 _4_ RTR  --- 7 message 32 [0 ffffffff c 800] ------- [12:255 -1:255 32 0] 
s 0.353822708 _18_ RTR  --- 8 message 32 [0 0 0 0] ------- [18:255 -1:255 32 0] 
s 0.354097708 _18_ MAC  --- 8 message 90 [0 ffffffff 12 800] ------- [18:255 -1:255 32 0] 
r 0.354818077 _7_ MAC  --- 8 message 32 [0 ffffffff 12 800] ------- [18:255 -1:255 32 0] 
r 0.354818079 _2_ MAC  --- 8 message 32 [0 ffffffff 12 800] ------- [18:255 -1:255 32 0] 
r 0.354818250 _38_ MAC  --- 8 message 32 [0 ffffffff 12 800] ------- [18:255 -1:255 32 0] 
r 0.354818275 _27_ MAC  --- 8 message 32 [0 ffffffff 12 800] ------- [18:255 -1:255 32 0] 
r 0.354818922 _19_ MAC  --- 8 message 32 [0 ffffffff 12 800] ------- [18:255 -1:255 32 0] 
r 0.354819034 _21_ MAC  --- 8 message 32 [0 ffffffff 12 800] ------- [18:255 -1:255 32 0] 
r 0.354819037 _25_ MAC  --- 8 message 32 [0 ffffffff 12 800] ------- [18:255 -1:255 32 0] 
r 0.354843077 _7_ RTR  --- 8 message 32 [0 ffffffff 12 800] ------- [18:255 -1:255 32 0] 
r 0.354843079 _2_ RTR  --- 8 message 32 [0 ffffffff 12 800] ------- [18:255 -1:255 32 0] 
r 0.354843250 _38_ RTR  --- 8 message 32 [0 ffffffff 12 800] ------- [18:255 -1:255 32 0] 
r 0.354843275 _27_ RTR  --- 8 message 32 [0 ffffffff 12 800] ------- [18:255 -1:255 32 0] 
r 0.354843922 _19_ RTR  --- 8 message 32 [0 ffffffff 12 800] ------- [18:255 -1:255 32 0] 
r 0.354844034 _21_ RTR  --- 8 message 32 [0 ffffffff 12 800] ------- [18:255 -1:255 32 0] 
r 0.354844037 _25_ RTR  --- 8 message 32 [0 ffffffff 12 800] ------- [18:255 -1:255 32 0] 
s 0.382010901 _38_ RTR  --- 9 message 32 [0 0 0 0] ------- [38:255 -1:255 32 0] 
s 0.382205901 _38_ MAC  --- 9 message 90 [0 ffffffff 26 800] ------- [38:255 -1:255 32 0] 
r 0.382926443 _18_ MAC  --- 9 message 32 [0 ffffffff 26 800] ------- [38:255 -1:255 32 0] 
r 0.382926569 _7_ MAC  --- 9 message 32 [0 ffffffff 26 800] ------- [38:255 -1:255 32 0] 
r 0.382926651 _2_ MAC  --- 9 message 32 [0 ffffffff 26 800] ------- [38:255 -1:255 32 0] 
r 0.382926737 _27_ MAC  --- 9 message 32 [0 ffffffff 26 800] ------- [38:255 -1:255 32 0] 
r 0.382951443 _18_ RTR  --- 9 message 32 [0 ffffffff 26 800] ------- [38:255 -1:255 32 0] 
r 0.382951569 _7_ RTR  --- 9 message 32 [0 ffffffff 26 800] ------- [38:255 -1:255 32 0] 
r 0.382951651 _2_ RTR  --- 9 message 32 [0 ffffffff 26 800] ------- [38:255 -1:255 32 0] 
r 0.382951737 _27_ RTR  --- 9 message 32 [0 ffffffff 26 800] ------- [38:255 -1:255 32 0] 
s 0.442339037 _29_ RTR  --- 10 message 32 [0 0 0 0] ------- [29:255 -1:255 32 0] 
s 0.443014037 _29_ MAC  --- 10 message 90 [0 ffffffff 1d 800] ------- [29:255 -1:255 32 0] 
r 0.443734085 _17_ MAC  --- 10 message 32 [0 ffffffff 1d 800] ------- [29:255 -1:255 32 0] 
r 0.443734232 _31_ MAC  --- 10 message 32 [0 ffffffff 1d 800] ------- [29:255 -1:255 32 0] 
r 0.443734354 _13_ MAC  --- 10 message 32 [0 ffffffff 1d 800] ------- [29:255 -1:255 32 0] 
r 0.443734381 _9_ MAC  --- 10 message 32 [0 ffffffff 1d 800] ------- [29:255 -1:255 32 0] 
r 0.443734526 _0_ MAC  --- 10 message 32 [0 ffffffff 1d 800] ------- [29:255 -1:255 32 0] 
r 0.443734543 _23_ MAC  --- 10 message 32 [0 ffffffff 1d 800] ------- [29:255 -1:255 32 0] 
r 0.443734598 _21_ MAC  --- 10 message 32 [0 ffffffff 1d 800] ------- [29:255 -1:255 32 0] 
r 0.443734698 _24_ MAC  --- 10 message 32 [0 ffffffff 1d 800] ------- [29:255 -1:255 32 0] 
r 0.443734846 _22_ MAC  --- 10 message 32 [0 ffffffff 1d 800] ------- [29:255 -1:255 32 0] 
r 0.443735020 _11_ MAC  --- 10 message 32 [0 ffffffff 1d 800] ------- [29:255 -1:255 32 0] 
r 0.443735038 _10_ MAC  --- 10 message 32 [0 ffffffff 1d 800] ------- [29:255 -1:255 32 0] 
r 0.443735154 _34_ MAC  --- 10 message 32 [0 ffffffff 1d 800] ------- [29:255 -1:255 32 0] 
r 0.443735160 _26_ MAC  --- 10 message 32 [0 ffffffff 1d 800] ------- [29:255 -1:255 32 0] 
r 0.443735229 _1_ MAC  --- 10 message 32 [0 ffffffff 1d 800] ------- [29:255 -1:255 32 0] 
r 0.443735360 _4_ MAC  --- 10 message 32 [0 ffffffff 1d 800] ------- [29:255 -1:255 32 0] 
r 0.443759085 _17_ RTR  --- 10 message 32 [0 ffffffff 1d 800] ------- [29:255 -1:255 32 0] 
r 0.443759232 _31_ RTR  --- 10 message 32 [0 ffffffff 1d 800] ------- [29:255 -1:255 32 0] 
r 0.443759354 _13_ RTR  --- 10 message 32 [0 ffffffff 1d 800] ------- [29:255 -1:255 32 0] 
r 0.443759381 _9_ RTR  --- 10 message 32 [0 ffffffff 1d 800] ------- [29:255 -1:255 32 0] 
r 0.443759526 _0_ RTR  --- 10 message 32 [0 ffffffff 1d 800] ------- [29:255 -1:255 32 0] 
r 0.443759543 _23_ RTR  --- 10 message 32 [0 ffffffff 1d 800] ------- [29:255 -1:255 32 0] 
r 0.443759598 _21_ RTR  --- 10 message 32 [0 ffffffff 1d 800] ------- [29:255 -1:255 32 0] 
r 0.443759698 _24_ RTR  --- 10 message 32 [0 ffffffff 1d 800] ------- [29:255 -1:255 32 0] 
r 0.443759846 _22_ RTR  --- 10 message 32 [0 ffffffff 1d 800] ------- [29:255 -1:255 32 0] 
r 0.443760020 _11_ RTR  --- 10 message 32 [0 ffffffff 1d 800] ------- [29:255 -1:255 32 0] 
r 0.443760038 _10_ RTR  --- 10 message 32 [0 ffffffff 1d 800] ------- [29:255 -1:255 32 0] 
r 0.443760154 _34_ RTR  --- 10 message 32 [0 ffffffff 1d 800] ------- [29:255 -1:255 32 0] 
r 0.443760160 _26_ RTR  --- 10 message 32 [0 ffffffff 1d 800] ------- [29:255 -1:255 32 0] 
r 0.443760229 _1_ RTR  --- 10 message 32 [0 ffffffff 1d 800] ------- [29:255 -1:255 32 0] 
r 0.443760360 _4_ RTR  --- 10 message 32 [0 ffffffff 1d 800] ------- [29:255 -1:255 32 0] 
s 0.477041254 _8_ RTR  --- 11 message 32 [0 0 0 0] ------- [8:255 -1:255 32 0] 
s 0.477416254 _8_ MAC  --- 11 message 90 [0 ffffffff 8 800] ------- [8:255 -1:255 32 0] 
r 0.478136730 _11_ MAC  --- 11 message 32 [0 ffffffff 8 800] ------- [8:255 -1:255 32 0] 
r 0.478136812 _4_ MAC  --- 11 message 32 [0 ffffffff 8 800] ------- [8:255 -1:255 32 0] 
r 0.478136968 _24_ MAC  --- 11 message 32 [0 ffffffff 8 800] ------- [8:255 -1:255 32 0] 
r 0.478137092 _1_ MAC  --- 11 message 32 [0 ffffffff 8 800] ------- [8:255 -1:255 32 0] 
r 0.478137119 _20_ MAC  --- 11 message 32 [0 ffffffff 8 800] ------- [8:255 -1:255 32 0] 
r 0.478137140 _33_ MAC  --- 11 message 32 [0 ffffffff 8 800] ------- [8:255 -1:255 32 0] 
r 0.478137182 _3_ MAC  --- 11 message 32 [0 ffffffff 8 800] ------- [8:255 -1:255 32 0] 
r 0.478137183 _28_ MAC  --- 11 message 32 [0 ffffffff 8 800] ------- [8:255 -1:255 32 0] 
r 0.478137250 _6_ MAC  --- 11 message 32 [0 ffffffff 8 800] ------- [8:255 -1:255 32 0] 
r 0.478137296 _36_ MAC  --- 11 message 32 [0 ffffffff 8 800] ------- [8:255 -1:255 32 0] 
r 0.478137308 _12_ MAC  --- 11 message 32 [0 ffffffff 8 800] ------- [8:255 -1:255 32 0] 
r 0.478137355 _22_ MAC  --- 11 message 32 [0 ffffffff 8 800] ------- [8:255 -1:255 32 0] 
r 0.478137419 _32_ MAC  --- 11 message 32 [0 ffffffff 8 800] ------- [8:255 -1:255 32 0] 
r 0.478137443 _16_ MAC  --- 11 message 32 [0 ffffffff 8 800] ------- [8:255 -1:255 32 0] 
r 0.478137482 _34_ MAC  --- 11 message 32 [0 ffffffff 8 800] ------- [8:255 -1:255 32 0] 
r 0.478137513 _23_ MAC  --- 11 message 32 [0 ffffffff 8 800] ------- [8:255 -1:255 32 0] 
r 0.478137545 _31_ MAC  --- 11 message 32 [0 ffffffff 8 800] ------- [8:255 -1:255 32 0] 
r 0.478137581 _17_ MAC  --- 11 message 32 [0 ffffffff 8 800] ------- [8:255 -1:255 32 0] 
r 0.478161730 _11_ RTR  --- 11 message 32 [0 ffffffff 8 800] ------- [8:255 -1:255 32 0] 
r 0.478161812 _4_ RTR  --- 11 message 32 [0 ffffffff 8 800] ------- [8:255 -1:255 32 0] 
r 0.478161968 _24_ RTR  --- 11 message 32 [0 ffffffff 8 800] ------- [8:255 -1:255 32 0] 
r 0.478162092 _1_ RTR  --- 11 message 32 [0 ffffffff 8 800] ------- [8:255 -1:255 32 0] 
r 0.478162119 _20_ RTR  --- 11 message 32 [0 ffffffff 8 800] ------- [8:255 -1:255 32 0] 
r 0.478162140 _33_ RTR  --- 11 message 32 [0 ffffffff 8 800] ------- [8:255 -1:255 32 0] 
r 0.478162182 _3_ RTR  --- 11 message 32 [0 ffffffff 8 800] ------- [8:255 -1:255 32 0] 
r 0.478162183 _28_ RTR  --- 11 message 32 [0 ffffffff 8 800] ------- [8:255 -1:255 32 0] 
r 0.478162250 _6_ RTR  --- 11 message 32 [0 ffffffff 8 800] ------- [8:255 -1:255 32 0] 
r 0.478162296 _36_ RTR  --- 11 message 32 [0 ffffffff 8 800] ------- [8:255 -1:255 32 0] 
r 0.478162308 _12_ RTR  --- 11 message 32 [0 ffffffff 8 800] ------- [8:255 -1:255 32 0] 
r 0.478162355 _22_ RTR  --- 11 message 32 [0 ffffffff 8 800] ------- [8:255 -1:255 32 0] 
r 0.478162419 _32_ RTR  --- 11 message 32 [0 ffffffff 8 800] ------- [8:255 -1:255 32 0] 
r 0.478162443 _16_ RTR  --- 11 message 32 [0 ffffffff 8 800] ------- [8:255 -1:255 32 0] 
r 0.478162482 _34_ RTR  --- 11 message 32 [0 ffffffff 8 800] ------- [8:255 -1:255 32 0] 
r 0.478162513 _23_ RTR  --- 11 message 32 [0 ffffffff 8 800] ------- [8:255 -1:255 32 0] 
r 0.478162545 _31_ RTR  --- 11 message 32 [0 ffffffff 8 800] ------- [8:255 -1:255 32 0] 
r 0.478162581 _17_ RTR  --- 11 message 32 [0 ffffffff 8 800] ------- [8:255 -1:255 32 0] 
s 0.487912486 _30_ RTR  --- 12 message 32 [0 0 0 0] ------- [30:255 -1:255 32 0] 
s 0.488567486 _30_ MAC  --- 12 message 90 [0 ffffffff 1e 800] ------- [30:255 -1:255 32 0] 
s 0.519498042 _22_ RTR  --- 13 message 32 [0 0 0 0] ------- [22:255 -1:255 32 0] 
s 0.520013042 _22_ MAC  --- 13 message 90 [0 ffffffff 16 800] ------- [22:255 -1:255 32 0] 
r 0.520733358 _34_ MAC  --- 13 message 32 [0 ffffffff 16 800] ------- [22:255 -1:255 32 0] 
r 0.520733518 _1_ MAC  --- 13 message 32 [0 ffffffff 16 800] ------- [22:255 -1:255 32 0] 
r 0.520733615 _10_ MAC  --- 13 message 32 [0 ffffffff 16 800] ------- [22:255 -1:255 32 0] 
r 0.520733629 _26_ MAC  --- 13 message 32 [0 ffffffff 16 800] ------- [22:255 -1:255 32 0] 
r 0.520733663 _31_ MAC  --- 13 message 32 [0 ffffffff 16 800] ------- [22:255 -1:255 32 0] 
r 0.520733803 _17_ MAC  --- 13 message 32 [0 ffffffff 16 800] ------- [22:255 -1:255 32 0] 
r 0.520733843 _24_ MAC  --- 13 message 32 [0 ffffffff 16 800] ------- [22:255 -1:255 32 0] 
r 0.520733851 _29_ MAC  --- 13 message 32 [0 ffffffff 16 800] ------- [22:255 -1:255 32 0] 
r 0.520733972 _13_ MAC  --- 13 message 32 [0 ffffffff 16 800] ------- [22:255 -1:255 32 0] 
r 0.520734072 _11_ MAC  --- 13 message 32 [0 ffffffff 16 800] ------- [22:255 -1:255 32 0] 
r 0.520734143 _8_ MAC  --- 13 message 32 [0 ffffffff 16 800] ------- [22:255 -1:255 32 0] 
r 0.520734182 _9_ MAC  --- 13 message 32 [0 ffffffff 16 800] ------- [22:255 -1:255 32 0] 
r 0.520734208 _23_ MAC  --- 13 message 32 [0 ffffffff 16 800] ------- [22:255 -1:255 32 0] 
r 0.520734325 _0_ MAC  --- 13 message 32 [0 ffffffff 16 800] ------- [22:255 -1:255 32 0] 
r 0.520758358 _34_ RTR  --- 13 message 32 [0 ffffffff 16 800] ------- [22:255 -1:255 32 0] 
r 0.520758518 _1_ RTR  --- 13 message 32 [0 ffffffff 16 800] ------- [22:255 -1:255 32 0] 
r 0.520758615 _10_ RTR  --- 13 message 32 [0 ffffffff 16 800] ------- [22:255 -1:255 32 0] 
r 0.520758629 _26_ RTR  --- 13 message 32 [0 ffffffff 16 800] ------- [22:255 -1:255 32 0] 
r 0.520758663 _31_ RTR  --- 13 message 32 [0 ffffffff 16 800] ------- [22:255 -1:255 32 0] 
r 0.520758803 _17_ RTR  --- 13 message 32 [0 ffffffff 16 800] ------- [22:255 -1:255 32 0] 
r 0.520758843 _24_ RTR  --- 13 message 32 [0 ffffffff 16 800] ------- [22:255 -1:255 32 0] 
r 0.520758851 _29_ RTR  --- 13 message 32 [0 ffffffff 16 800] ------- [22:255 -1:255 32 0] 
r 0.520758972 _13_ RTR  --- 13 message 32 [0 ffffffff 16 800] ------- [22:255 -1:255 32 0] 
r 0.520759072 _11_ RTR  --- 13 message 32 [0 ffffffff 16 800] ------- [22:255 -1:255 32 0] 
r 0.520759143 _8_ RTR  --- 13 message 32 [0 ffffffff 16 800] ------- [22:255 -1:255 32 0] 
r 0.520759182 _9_ RTR  --- 13 message 32 [0 ffffffff 16 800] ------- [22:255 -1:255 32 0] 
r 0.520759208 _23_ RTR  --- 13 message 32 [0 ffffffff 16 800] ------- [22:255 -1:255 32 0] 
r 0.520759325 _0_ RTR  --- 13 message 32 [0 ffffffff 16 800] ------- [22:255 -1:255 32 0] 
s 0.556838879 _38_ AGT  --- 14 cbr 512 [0 0 0 0] ------- [38:0 39:0 32 0] [0] 0 0
r 0.556838879 _38_ RTR  --- 14 cbr 512 [0 0 0 0] ------- [38:0 39:0 32 0] [0] 0 0
s 0.621208005 _10_ RTR  --- 15 message 32 [0 0 0 0] ------- [10:255 -1:255 32 0] 
s 0.621283005 _10_ MAC  --- 15 message 90 [0 ffffffff a 800] ------- [10:255 -1:255 32 0] 
r 0.622003156 _26_ MAC  --- 15 message 32 [0 ffffffff a 800] ------- [10:255 -1:255 32 0] 