M 0.0 nn 30 x 1700 y 1700 rp DSDV
M 0.0 sc dsdv-update.tcl cp trafic seed 1.0
M 0.0 prop Propagation/TwoRayGround ant Antenna/OmniAntenna
M 0.00000 0 (193.04, 1368.77, 0.00), (193.04, 1368.77), 0.00
M 0.00000 1 (707.80, 498.66, 0.00), (707.80, 498.66), 0.00
M 0.00000 2 (955.82, 1019.25, 0.00), (955.82, 1019.25), 0.00
M 0.00000 3 (380.39, 490.13, 0.00), (380.39, 490.13), 0.00
M 0.00000 4 (925.37, 810.74, 0.00), (925.37, 810.74), 0.00
M 0.00000 5 (396.46, 660.35, 0.00), (396.46, 660.35), 0.00
M 0.00000 6 (617.40, 628.51, 0.00), (617.40, 628.51), 0.00
M 0.00000 7 (215.47, 583.00, 0.00), (215.47, 583.00), 0.00
M 0.00000 8 (707.84, 784.04, 0.00), (707.84, 784.04), 0.00
M 0.00000 9 (343.53, 167.04, 0.00), (343.53, 167.04), 0.00
M 0.00000 10 (429.25, 434.19, 0.00), (429.25, 434.19), 0.00
M 0.00000 11 (745.19, 492.25, 0.00), (745.19, 492.25), 0.00
M 0.00000 12 (131.33, 613.43, 0.00), (131.33, 613.43), 0.00
M 0.00000 13 (158.33, 165.96, 0.00), (158.33, 165.96), 0.00
M 0.00000 14 (235.68, 1329.36, 0.00), (235.68, 1329.36), 0.00
M 0.00000 15 (1014.18, 646.29, 0.00), (1014.18, 646.29), 0.00
M 0.00000 16 (536.72, 722.02, 0.00), (536.72, 722.02), 0.00
M 0.00000 17 (727.00, 1168.56, 0.00), (727.00, 1168.56), 0.00
M 0.00000 18 (654.34, 834.83, 0.00), (654.34, 834.83), 0.00
M 0.00000 19 (860.08, 224.84, 0.00), (860.08, 224.84), 0.00
M 0.00000 20 (585.44, 491.67, 0.00), (585.44, 491.67), 0.00
M 0.00000 21 (167.00, 942.50, 0.00), (167.00, 942.50), 0.00
M 0.00000 22 (727.93, 154.90, 0.00), (727.93, 154.90), 0.00
M 0.00000 23 (799.77, 833.47, 0.00), (799.77, 833.47), 0.00
M 0.00000 24 (1142.27, 1365.14, 0.00), (1142.27, 1365.14), 0.00
M 0.00000 25 (786.19, 534.31, 0.00), (786.19, 534.31), 0.00
M 0.00000 0 (193.04, 1368.77, 0.00), (193.04, 1368.77), 13.89
M 0.00000 1 (707.80, 498.66, 0.00), (707.80, 498.66), 16.97
s 0.003091411 _0_ RTR  --- 0 message 32 [0 0 0 0] ------- [0:255 -1:255 32 0] 
s 0.003466411 _0_ MAC  --- 0 message 90 [0 ffffffff 0 800] ------- [0:255 -1:255 32 0] 
r 0.004186604 _14_ MAC  --- 0 message 32 [0 ffffffff 0 800] ------- [0:255 -1:255 32 0] 
r 0.004211604 _14_ RTR  --- 0 message 32 [0 ffffffff 0 800] ------- [0:255 -1:255 32 0] 
s 0.037458776 _2_ RTR  --- 1 message 32 [0 0 0 0] ------- [2:255 -1:255 32 0] 
s 0.037813776 _2_ MAC  --- 1 message 90 [0 ffffffff 2 800] ------- [2:255 -1:255 32 0] 
r 0.038534478 _4_ MAC  --- 1 message 32 [0 ffffffff 2 800] ------- [2:255 -1:255 32 0] 
r 0.038534585 _23_ MAC  --- 1 message 32 [0 ffffffff 2 800] ------- [2:255 -1:255 32 0] 
r 0.038534687 _17_ MAC  --- 1 message 32 [0 ffffffff 2 800] ------- [2:255 -1:255 32 0] 
r 0.038534915 _8_ MAC  --- 1 message 32 [0 ffffffff 2 800] ------- [2:255 -1:255 32 0] 
r 0.038534954 _18_ MAC  --- 1 message 32 [0 ffffffff 2 800] ------- [2:255 -1:255 32 0] 
r 0.038535034 _15_ MAC  --- 1 message 32 [0 ffffffff 2 800] ------- [2:255 -1:255 32 0] 
r 0.038535086 _24_ MAC  --- 1 message 32 [0 ffffffff 2 800] ------- [2:255 -1:255 32 0] 
r 0.038559478 _4_ RTR  --- 1 message 32 [0 ffffffff 2 800] ------- [2:255 -1:255 32 0] 
r 0.038559585 _23_ RTR  --- 1 message 32 [0 ffffffff 2 800] ------- [2:255 -1:255 32 0] 
r 0.038559687 _17_ RTR  --- 1 message 32 [0 ffffffff 2 800] ------- [2:255 -1:255 32 0] 
r 0.038559915 _8_ RTR  --- 1 message 32 [0 ffffffff 2 800] ------- [2:255 -1:255 32 0] 
r 0.038559954 _18_ RTR  --- 1 message 32 [0 ffffffff 2 800] ------- [2:255 -1:255 32 0] 
r 0.038560034 _15_ RTR  --- 1 message 32 [0 ffffffff 2 800] ------- [2:255 -1:255 32 0] 
r 0.038560086 _24_ RTR  --- 1 message 32 [0 ffffffff 2 800] ------- [2:255 -1:255 32 0] 
s 0.087462768 _13_ RTR  --- 2 message 32 [0 0 0 0] ------- [13:255 -1:255 32 0] 
s 0.087757768 _13_ MAC  --- 2 message 90 [0 ffffffff d 800] ------- [13:255 -1:255 32 0] 
r 0.088478385 _9_ MAC  --- 2 message 32 [0 ffffffff d 800] ------- [13:255 -1:255 32 0] 
r 0.088478532 _27_ MAC  --- 2 message 32 [0 ffffffff d 800] ------- [13:255 -1:255 32 0] 
r 0.088478532 _26_ MAC  --- 2 message 32 [0 ffffffff d 800] ------- [13:255 -1:255 32 0] 
r 0.088479039 _10_ MAC  --- 2 message 32 [0 ffffffff d 800] ------- [13:255 -1:255 32 0] 
r 0.088479078 _3_ MAC  --- 2 message 32 [0 ffffffff d 800] ------- [13:255 -1:255 32 0] 
r 0.088503385 _9_ RTR  --- 2 message 32 [0 ffffffff d 800] ------- [13:255 -1:255 32 0] 
r 0.088503532 _27_ RTR  --- 2 message 32 [0 ffffffff d 800] ------- [13:255 -1:255 32 0] 
r 0.088503532 _26_ RTR  --- 2 message 32 [0 ffffffff d 800] ------- [13:255 -1:255 32 0] 
r 0.088504039 _10_ RTR  --- 2 message 32 [0 ffffffff d 800] ------- [13:255 -1:255 32 0] 
r 0.088504078 _3_ RTR  --- 2 message 32 [0 ffffffff d 800] ------- [13:255 -1:255 32 0] 
s 0.177365656 _3_ RTR  --- 3 message 32 [0 0 0 0] ------- [3:255 -1:255 32 0] 
s 0.177560656 _3_ MAC  --- 3 message 90 [0 ffffffff 3 800] ------- [3:255 -1:255 32 0] 
r 0.178280903 _10_ MAC  --- 3 message 32 [0 ffffffff 3 800] ------- [3:255 -1:255 32 0] 
r 0.178281226 _5_ MAC  --- 3 message 32 [0 ffffffff 3 800] ------- [3:255 -1:255 32 0] 
r 0.178281287 _7_ MAC  --- 3 message 32 [0 ffffffff 3 800] ------- [3:255 -1:255 32 0] 
r 0.178281339 _20_ MAC  --- 3 message 32 [0 ffffffff 3 800] ------- [3:255 -1:255 32 0] 
r 0.178281571 _6_ MAC  --- 3 message 32 [0 ffffffff 3 800] ------- [3:255 -1:255 32 0] 
r 0.178281582 _12_ MAC  --- 3 message 32 [0 ffffffff 3 800] ------- [3:255 -1:255 32 0] 
r 0.178281588 _16_ MAC  --- 3 message 32 [0 ffffffff 3 800] ------- [3:255 -1:255 32 0] 
r 0.178281740 _9_ MAC  --- 3 message 32 [0 ffffffff 3 800] ------- [3:255 -1:255 32 0] 
r 0.178281748 _1_ MAC  --- 3 message 32 [0 ffffffff 3 800] ------- [3:255 -1:255 32 0] 
r 0.178281872 _11_ MAC  --- 3 message 32 [0 ffffffff 3 800] ------- [3:255 -1:255 32 0] 
r 0.178281966 _13_ MAC  --- 3 message 32 [0 ffffffff 3 800] ------- [3:255 -1:255 32 0] 
r 0.178305903 _10_ RTR  --- 3 message 32 [0 ffffffff 3 800] ------- [3:255 -1:255 32 0] 
r 0.178306226 _5_ RTR  --- 3 message 32 [0 ffffffff 3 800] ------- [3:255 -1:255 32 0] 
r 0.178306287 _7_ RTR  --- 3 message 32 [0 ffffffff 3 800] ------- [3:255 -1:255 32 0] 
r 0.178306339 _20_ RTR  --- 3 message 32 [0 ffffffff 3 800] ------- [3:255 -1:255 32 0] 
r 0.178306571 _6_ RTR  --- 3 message 32 [0 ffffffff 3 800] ------- [3:255 -1:255 32 0] 
r 0.178306582 _12_ RTR  --- 3 message 32 [0 ffffffff 3 800] ------- [3:255 -1:255 32 0] 
r 0.178306588 _16_ RTR  --- 3 message 32 [0 ffffffff 3 800] ------- [3:255 -1:255 32 0] 
r 0.178306740 _9_ RTR  --- 3 message 32 [0 ffffffff 3 800] ------- [3:255 -1:255 32 0] 
r 0.178306748 _1_ RTR  --- 3 message 32 [0 ffffffff 3 800] ------- [3:255 -1:255 32 0] 
r 0.178306872 _11_ RTR  --- 3 message 32 [0 ffffffff 3 800] ------- [3:255 -1:255 32 0] 
r 0.178306966 _13_ RTR  --- 3 message 32 [0 ffffffff 3 800] ------- [3:255 -1:255 32 0] 
s 0.191634337 _19_ RTR  --- 4 message 32 [0 0 0 0] ------- [19:255 -1:255 32 0] 
s 0.191889337 _19_ MAC  --- 4 message 90 [0 ffffffff 13 800] ------- [19:255 -1:255 32 0] 
r 0.192609835 _22_ MAC  --- 4 message 32 [0 ffffffff 13 800] ------- [19:255 -1:255 32 0] 
r 0.192610219 _29_ MAC  --- 4 message 32 [0 ffffffff 13 800] ------- [19:255 -1:255 32 0] 
r 0.192610307 _11_ MAC  --- 4 message 32 [0 ffffffff 13 800] ------- [19:255 -1:255 32 0] 
r 0.192610381 _1_ MAC  --- 4 message 32 [0 ffffffff 13 800] ------- [19:255 -1:255 32 0] 
r 0.192610397 _25_ MAC  --- 4 message 32 [0 ffffffff 13 800] ------- [19:255 -1:255 32 0] 
r 0.192610613 _20_ MAC  --- 4 message 32 [0 ffffffff 13 800] ------- [19:255 -1:255 32 0] 
r 0.192634835 _22_ RTR  --- 4 message 32 [0 ffffffff 13 800] ------- [19:255 -1:255 32 0] 
r 0.192635219 _29_ RTR  --- 4 message 32 [0 ffffffff 13 800] ------- [19:255 -1:255 32 0] 
r 0.192635307 _11_ RTR  --- 4 message 32 [0 ffffffff 13 800] ------- [19:255 -1:255 32 0] 
r 0.192635381 _1_ RTR  --- 4 message 32 [0 ffffffff 13 800] ------- [19:255 -1:255 32 0] 
r 0.192635397 _25_ RTR  --- 4 message 32 [0 ffffffff 13 800] ------- [19:255 -1:255 32 0] 
r 0.192635613 _20_ RTR  --- 4 message 32 [0 ffffffff 13 800] ------- [19:255 -1:255 32 0] 
s 0.234603229 _15_ RTR  --- 5 message 32 [0 0 0 0] ------- [15:255 -1:255 32 0] 
s 0.234898229 _15_ MAC  --- 5 message 90 [0 ffffffff f 800] ------- [15:255 -1:255 32 0] 
r 0.235618852 _4_ MAC  --- 5 message 32 [0 ffffffff f 800] ------- [15:255 -1:255 32 0] 
r 0.235619076 _25_ MAC  --- 5 message 32 [0 ffffffff f 800] ------- [15:255 -1:255 32 0] 
r 0.235619178 _23_ MAC  --- 5 message 32 [0 ffffffff f 800] ------- [15:255 -1:255 32 0] 
r 0.235619263 _11_ MAC  --- 5 message 32 [0 ffffffff f 800] ------- [15:255 -1:255 32 0] 
r 0.235619349 _8_ MAC  --- 5 message 32 [0 ffffffff f 800] ------- [15:255 -1:255 32 0] 
r 0.235619363 _1_ MAC  --- 5 message 32 [0 ffffffff f 800] ------- [15:255 -1:255 32 0] 
r 0.235619488 _2_ MAC  --- 5 message 32 [0 ffffffff f 800] ------- [15:255 -1:255 32 0] 
r 0.235619553 _6_ MAC  --- 5 message 32 [0 ffffffff f 800] ------- [15:255 -1:255 32 0] 
r 0.235643852 _4_ RTR  --- 5 message 32 [0 ffffffff f 800] ------- [15:255 -1:255 32 0] 
r 0.235644076 _25_ RTR  --- 5 message 32 [0 ffffffff f 800] ------- [15:255 -1:255 32 0] 
r 0.235644178 _23_ RTR  --- 5 message 32 [0 ffffffff f 800] ------- [15:255 -1:255 32 0] 
r 0.235644263 _11_ RTR  --- 5 message 32 [0 ffffffff f 800] ------- [15:255 -1:255 32 0] 
r 0.235644349 _8_ RTR  --- 5 message 32 [0 ffffffff f 800] ------- [15:255 -1:255 32 0] 
r 0.235644363 _1_ RTR  --- 5 message 32 [0 ffffffff f 800] ------- [15:255 -1:255 32 0] 
r 0.235644488 _2_ RTR  --- 5 message 32 [0 ffffffff f 800] ------- [15:255 -1:255 32 0] 
r 0.235644553 _6_ RTR  --- 5 message 32 [0 ffffffff f 800] ------- [15:255 -1:255 32 0] 
s 0.333839210 _12_ RTR  --- 6 message 32 [0 0 0 0] ------- [12:255 -1:255 32 0] 
s 0.333994210 _12_ MAC  --- 6 message 90 [0 ffffffff c 800] ------- [12:255 -1:255 32 0] 
r 0.334714508 _7_ MAC  --- 6 message 32 [0 ffffffff c 800] ------- [12:255 -1:255 32 0] 
r 0.334715107 _5_ MAC  --- 6 message 32 [0 ffffffff c 800] ------- [12:255 -1:255 32 0] 
r 0.334715136 _3_ MAC  --- 6 message 32 [0 ffffffff c 800] ------- [12:255 -1:255 32 0] 
r 0.334715313 _21_ MAC  --- 6 message 32 [0 ffffffff c 800] ------- [12:255 -1:255 32 0] 
r 0.334715369 _10_ MAC  --- 6 message 32 [0 ffffffff c 800] ------- [12:255 -1:255 32 0] 
r 0.334739508 _7_ RTR  --- 6 message 32 [0 ffffffff c 800] ------- [12:255 -1:255 32 0] 
r 0.334740107 _5_ RTR  --- 6 message 32 [0 ffffffff c 800] ------- [12:255 -1:255 32 0] 
r 0.334740136 _3_ RTR  --- 6 message 32 [0 ffffffff c 800] ------- [12:255 -1:255 32 0] 
r 0.334740313 _21_ RTR  --- 6 message 32 [0 ffffffff c 800] ------- [12:255 -1:255 32 0] 
r 0.334740369 _10_ RTR  --- 6 message 32 [0 ffffffff c 800] ------- [12:255 -1:255 32 0] 
s 0.351472650 _18_ RTR  --- 7 message 32 [0 0 0 0] ------- [18:255 -1:255 32 0] 
s 0.351847650 _18_ MAC  --- 7 message 90 [0 ffffffff 12 800] ------- [18:255 -1:255 32 0] 
r 0.352567896 _8_ MAC  --- 7 message 32 [0 ffffffff 12 800] ------- [18:255 -1:255 32 0] 
r 0.352568135 _23_ MAC  --- 7 message 32 [0 ffffffff 12 800] ------- [18:255 -1:255 32 0] 
r 0.352568193 _16_ MAC  --- 7 message 32 [0 ffffffff 12 800] ------- [18:255 -1:255 32 0] 
r 0.352568349 _6_ MAC  --- 7 message 32 [0 ffffffff 12 800] ------- [18:255 -1:255 32 0] 
r 0.352568557 _4_ MAC  --- 7 message 32 [0 ffffffff 12 800] ------- [18:255 -1:255 32 0] 
r 0.352568688 _5_ MAC  --- 7 message 32 [0 ffffffff 12 800] ------- [18:255 -1:255 32 0] 
r 0.352568744 _25_ MAC  --- 7 message 32 [0 ffffffff 12 800] ------- [18:255 -1:255 32 0] 
r 0.352568785 _1_ MAC  --- 7 message 32 [0 ffffffff 12 800] ------- [18:255 -1:255 32 0] 
r 0.352568789 _17_ MAC  --- 7 message 32 [0 ffffffff 12 800] ------- [18:255 -1:255 32 0] 
r 0.352568817 _20_ MAC  --- 7 message 32 [0 ffffffff 12 800] ------- [18:255 -1:255 32 0] 
r 0.352568828 _2_ MAC  --- 7 message 32 [0 ffffffff 12 800] ------- [18:255 -1:255 32 0] 
r 0.352568832 _11_ MAC  --- 7 message 32 [0 ffffffff 12 800] ------- [18:255 -1:255 32 0] 
r 0.352592896 _8_ RTR  --- 7 message 32 [0 ffffffff 12 800] ------- [18:255 -1:255 32 0] 
r 0.352593135 _23_ RTR  --- 7 message 32 [0 ffffffff 12 800] ------- [18:255 -1:255 32 0] 
r 0.352593193 _16_ RTR  --- 7 message 32 [0 ffffffff 12 800] ------- [18:255 -1:255 32 0] 
r 0.352593349 _6_ RTR  --- 7 message 32 [0 ffffffff 12 800] ------- [18:255 -1:255 32 0] 
r 0.352593557 _4_ RTR  --- 7 message 32 [0 ffffffff 12 800] ------- [18:255 -1:255 32 0] 
r 0.352593688 _5_ RTR  --- 7 message 32 [0 ffffffff 12 800] ------- [18:255 -1:255 32 0] 
r 0.352593744 _25_ RTR  --- 7 message 32 [0 ffffffff 12 800] ------- [18:255 -1:255 32 0] 
r 0.352593785 _1_ RTR  --- 7 message 32 [0 ffffffff 12 800] ------- [18:255 -1:255 32 0] 
r 0.352593789 _17_ RTR  --- 7 message 32 [0 ffffffff 12 800] ------- [18:255 -1:255 32 0] 
r 0.352593817 _20_ RTR  --- 7 message 32 [0 ffffffff 12 800] ------- [18:255 -1:255 32 0] 
r 0.352593828 _2_ RTR  --- 7 message 32 [0 ffffffff 12 800] ------- [18:255 -1:255 32 0] 
r 0.352593832 _11_ RTR  --- 7 message 32 [0 ffffffff 12 800] ------- [18:255 -1:255 32 0] 
s 0.436386259 _29_ RTR  --- 8 message 32 [0 0 0 0] ------- [29:255 -1:255 32 0] 
s 0.436701259 _29_ MAC  --- 8 message 90 [0 ffffffff 1d 800] ------- [29:255 -1:255 32 0] 
r 0.437422142 _19_ MAC  --- 8 message 32 [0 ffffffff 1d 800] ------- [29:255 -1:255 32 0] 
r 0.437422303 _22_ MAC  --- 8 message 32 [0 ffffffff 1d 800] ------- [29:255 -1:255 32 0] 
r 0.437447142 _19_ RTR  --- 8 message 32 [0 ffffffff 1d 800] ------- [29:255 -1:255 32 0] 
r 0.437447303 _22_ RTR  --- 8 message 32 [0 ffffffff 1d 800] ------- [29:255 -1:255 32 0] 
s 0.470117073 _8_ RTR  --- 9 message 32 [0 0 0 0] ------- [8:255 -1:255 32 0] 
s 0.470652073 _8_ MAC  --- 9 message 90 [0 ffffffff 8 800] ------- [8:255 -1:255 32 0] 
r 0.471372319 _18_ MAC  --- 9 message 32 [0 ffffffff 8 800] ------- [8:255 -1:255 32 0] 
r 0.471372421 _23_ MAC  --- 9 message 32 [0 ffffffff 8 800] ------- [8:255 -1:255 32 0] 
r 0.471372673 _6_ MAC  --- 9 message 32 [0 ffffffff 8 800] ------- [8:255 -1:255 32 0] 
r 0.471372680 _16_ MAC  --- 9 message 32 [0 ffffffff 8 800] ------- [8:255 -1:255 32 0] 
r 0.471372803 _4_ MAC  --- 9 message 32 [0 ffffffff 8 800] ------- [8:255 -1:255 32 0] 
r 0.471372945 _25_ MAC  --- 9 message 32 [0 ffffffff 8 800] ------- [8:255 -1:255 32 0] 
r 0.471373024 _1_ MAC  --- 9 message 32 [0 ffffffff 8 800] ------- [8:255 -1:255 32 0] 
r 0.471373053 _11_ MAC  --- 9 message 32 [0 ffffffff 8 800] ------- [8:255 -1:255 32 0] 
r 0.471373129 _20_ MAC  --- 9 message 32 [0 ffffffff 8 800] ------- [8:255 -1:255 32 0] 
r 0.471373190 _5_ MAC  --- 9 message 32 [0 ffffffff 8 800] ------- [8:255 -1:255 32 0] 
r 0.471373192 _15_ MAC  --- 9 message 32 [0 ffffffff 8 800] ------- [8:255 -1:255 32 0] 
r 0.471373212 _2_ MAC  --- 9 message 32 [0 ffffffff 8 800] ------- [8:255 -1:255 32 0] 
r 0.471373356 _17_ MAC  --- 9 message 32 [0 ffffffff 8 800] ------- [8:255 -1:255 32 0] 
r 0.471397319 _18_ RTR  --- 9 message 32 [0 ffffffff 8 800] ------- [8:255 -1:255 32 0] 
r 0.471397421 _23_ RTR  --- 9 message 32 [0 ffffffff 8 800] ------- [8:255 -1:255 32 0] 
r 0.471397673 _6_ RTR  --- 9 message 32 [0 ffffffff 8 800] ------- [8:255 -1:255 32 0] 
r 0.471397680 _16_ RTR  --- 9 message 32 [0 ffffffff 8 800] ------- [8:255 -1:255 32 0] 
r 0.471397803 _4_ RTR  --- 9 message 32 [0 ffffffff 8 800] ------- [8:255 -1:255 32 0] 
r 0.471397945 _25_ RTR  --- 9 message 32 [0 ffffffff 8 800] ------- [8:255 -1:255 32 0] 
r 0.471398024 _1_ RTR  --- 9 message 32 [0 ffffffff 8 800] ------- [8:255 -1:255 32 0] 
r 0.471398053 _11_ RTR  --- 9 message 32 [0 ffffffff 8 800] ------- [8:255 -1:255 32 0] 
r 0.471398129 _20_ RTR  --- 9 message 32 [0 ffffffff 8 800] ------- [8:255 -1:255 32 0] 
r 0.471398190 _5_ RTR  --- 9 message 32 [0 ffffffff 8 800] ------- [8:255 -1:255 32 0] 
r 0.471398192 _15_ RTR  --- 9 message 32 [0 ffffffff 8 800] ------- [8:255 -1:255 32 0] 
r 0.471398212 _2_ RTR  --- 9 message 32 [0 ffffffff 8 800] ------- [8:255 -1:255 32 0] 
r 0.471398356 _17_ RTR  --- 9 message 32 [0 ffffffff 8 800] ------- [8:255 -1:255 32 0] 
s 0.521504883 _22_ RTR  --- 10 message 32 [0 0 0 0] ------- [22:255 -1:255 32 0] 
s 0.521659883 _22_ MAC  --- 10 message 90 [0 ffffffff 16 800] ------- [22:255 -1:255 32 0] 
r 0.522380382 _19_ MAC  --- 10 message 32 [0 ffffffff 16 800] ------- [22:255 -1:255 32 0] 
r 0.522380927 _29_ MAC  --- 10 message 32 [0 ffffffff 16 800] ------- [22:255 -1:255 32 0] 
r 0.522381009 _11_ MAC  --- 10 message 32 [0 ffffffff 16 800] ------- [22:255 -1:255 32 0] 
r 0.522381031 _1_ MAC  --- 10 message 32 [0 ffffffff 16 800] ------- [22:255 -1:255 32 0] 
r 0.522381102 _20_ MAC  --- 10 message 32 [0 ffffffff 16 800] ------- [22:255 -1:255 32 0] 
r 0.522381163 _25_ MAC  --- 10 message 32 [0 ffffffff 16 800] ------- [22:255 -1:255 32 0] 
r 0.522381165 _9_ MAC  --- 10 message 32 [0 ffffffff 16 800] ------- [22:255 -1:255 32 0] 
r 0.522405382 _19_ RTR  --- 10 message 32 [0 ffffffff 16 800] ------- [22:255 -1:255 32 0] 
r 0.522405927 _29_ RTR  --- 10 message 32 [0 ffffffff 16 800] ------- [22:255 -1:255 32 0] 
r 0.522406009 _11_ RTR  --- 10 message 32 [0 ffffffff 16 800] ------- [22:255 -1:255 32 0] 
r 0.522406031 _1_ RTR  --- 10 message 32 [0 ffffffff 16 800] ------- [22:255 -1:255 32 0] 
r 0.522406102 _20_ RTR  --- 10 message 32 [0 ffffffff 16 800] ------- [22:255 -1:255 32 0] 
r 0.522406163 _25_ RTR  --- 10 message 32 [0 ffffffff 16 800] ------- [22:255 -1:255 32 0] 
r 0.522406165 _9_ RTR  --- 10 message 32 [0 ffffffff 16 800] ------- [22:255 -1:255 32 0] 
s 0.556838879 _28_ AGT  --- 11 cbr 512 [0 0 0 0] ------- [28:0 29:0 32 0] [0] 0 0
r 0.556838879 _28_ RTR  --- 11 cbr 512 [0 0 0 0] ------- [28:0 29:0 32 0] [0] 0 0
s 0.627186592 _10_ RTR  --- 12 message 32 [0 0 0 0] ------- [10:255 -1:255 32 0] 
s 0.627321592 _10_ MAC  --- 12 message 90 [0 ffffffff a 800] ------- [10:255 -1:255 32 0] 
r 0.628041840 _3_ MAC  --- 12 message 32 [0 ffffffff a 800] ------- [10:255 -1:255 32 0] 
r 0.628042147 _20_ MAC  --- 12 message 32 [0 ffffffff a 800] ------- [10:255 -1:255 32 0] 
r 0.628042354 _5_ MAC  --- 12 message 32 [0 ffffffff a 800] ------- [10:255 -1:255 32 0] 
r 0.628042460 _7_ MAC  --- 12 message 32 [0 ffffffff a 800] ------- [10:255 -1:255 32 0] 
r 0.628042494 _6_ MAC  --- 12 message 32 [0 ffffffff a 800] ------- [10:255 -1:255 32 0] 
r 0.628042527 _9_ MAC  --- 12 message 32 [0 ffffffff a 800] ------- [10:255 -1:255 32 0] 
r 0.628042545 _1_ MAC  --- 12 message 32 [0 ffffffff a 800] ------- [10:255 -1:255 32 0] 
r 0.628042616 _16_ MAC  --- 12 message 32 [0 ffffffff a 800] ------- [10:255 -1:255 32 0] 
r 0.628042663 _11_ MAC  --- 12 message 32 [0 ffffffff a 800] ------- [10:255 -1:255 32 0] 
r 0.628042751 _12_ MAC  --- 12 message 32 [0 ffffffff a 800] ------- [10:255 -1:255 32 0] 
r 0.628042828 _25_ MAC  --- 12 message 32 [0 ffffffff a 800] ------- [10:255 -1:255 32 0] 
r 0.628042863 _13_ MAC  --- 12 message 32 [0 ffffffff a 800] ------- [10:255 -1:255 32 0] 
r 0.628066840 _3_ RTR  --- 12 message 32 [0 ffffffff a 800] ------- [10:255 -1:255 32 0] 
r 0.628067147 _20_ RTR  --- 12 message 32 [0 ffffffff a 800] ------- [10:255 -1:255 32 0] 
r 0.628067354 _5_ RTR  --- 12 message 32 [0 ffffffff a 800] ------- [10:255 -1:255 32 0] 
r 0.628067460 _7_ RTR  --- 12 message 32 [0 ffffffff a 800] ------- [10:255 -1:255 32 0] 
r 0.628067494 _6_ RTR  --- 12 message 32 [0 ffffffff a 800] ------- [10:255 -1:255 32 0] 
r 0.628067527 _9_ RTR  --- 12 message 32 [0 ffffffff a 800] ------- [10:255 -1:255 32 0] 
r 0.628067545 _1_ RTR  --- 12 message 32 [0 ffffffff a 800] ------- [10:255 -1:255 32 0] 
r 0.628067616 _16_ RTR  --- 12 message 32 [0 ffffffff a 800] ------- [10:255 -1:255 32 0] 
r 0.628067663 _11_ RTR  --- 12 message 32 [0 ffffffff a 800] ------- [10:255 -1:255 32 0] 
r 0.628067751 _12_ RTR  --- 12 message 32 [0 ffffffff a 800] ------- [10:255 -1:255 32 0] 
r 0.628067828 _25_ RTR  --- 12 message 32 [0 ffffffff a 800] ------- [10:255 -1:255 32 0] 
r 0.628067863 _13_ RTR  --- 12 message 32 [0 ffffffff a 800] ------- [10:255 -1:255 32 0] 
s 0.634670006 _6_ RTR  --- 13 message 32 [0 0 0 0] ------- [6:255 -1:255 32 0] 
s 0.634865006 _6_ MAC  --- 13 message 90 [0 ffffffff 6 800] ------- [6:255 -1:255 32 0] 
r 0.635585418 _16_ MAC  --- 13 message 32 [0 ffffffff 6 800] ------- [6:255 -1:255 32 0] 
r 0.635585475 _20_ MAC  --- 13 message 32 [0 ffffffff 6 800] ------- [6:255 -1:255 32 0] 
r 0.635585534 _1_ MAC  --- 13 message 32 [0 ffffffff 6 800] ------- [6:255 -1:255 32 0] 
r 0.635585606 _8_ MAC  --- 13 message 32 [0 ffffffff 6 800] ------- [6:255 -1:255 32 0] 
r 0.635585629 _11_ MAC  --- 13 message 32 [0 ffffffff 6 800] ------- [6:255 -1:255 32 0] 
r 0.635585651 _25_ MAC  --- 13 message 32 [0 ffffffff 6 800] ------- [6:255 -1:255 32 0] 
r 0.635585705 _18_ MAC  --- 13 message 32 [0 ffffffff 6 800] ------- [6:255 -1:255 32 0] 
r 0.635585750 _5_ MAC  --- 13 message 32 [0 ffffffff 6 800] ------- [6:255 -1:255 32 0] 
r 0.635585908 _10_ MAC  --- 13 message 32 [0 ffffffff 6 800] ------- [6:255 -1:255 32 0] 
r 0.635585921 _23_ MAC  --- 13 message 32 [0 ffffffff 6 800] ------- [6:255 -1:255 32 0] 
r 0.635585921 _3_ MAC  --- 13 message 32 [0 ffffffff 6 800] ------- [6:255 -1:255 32 0] 
r 0.635586199 _4_ MAC  --- 13 message 32 [0 ffffffff 6 800] ------- [6:255 -1:255 32 0] 
r 0.635586330 _15_ MAC  --- 13 message 32 [0 ffffffff 6 800] ------- [6:255 -1:255 32 0] 
r 0.635610418 _16_ RTR  --- 13 message 32 [0 ffffffff 6 800] ------- [6:255 -1:255 32 0] 
r 0.635610475 _20_ RTR  --- 13 message 32 [0 ffffffff 6 800] ------- [6:255 -1:255 32 0] 
r 0.635610534 _1_ RTR  --- 13 message 32 [0 ffffffff 6 800] ------- [6:255 -1:255 32 0] 
r 0.635610606 _8_ RTR  --- 13 message 32 [0 ffffffff 6 800] ------- [6:255 -1:255 32 0] 
r 0.635610629 _11_ RTR  --- 13 message 32 [0 ffffffff 6 800] ------- [6:255 -1:255 32 0] 
r 0.635610651 _25_ RTR  --- 13 message 32 [0 ffffffff 6 800] ------- [6:255 -1:255 32 0] 
r 0.635610705 _18_ RTR  --- 13 message 32 [0 ffffffff 6 800] ------- [6:255 -1:255 32 0] 
r 0.635610750 _5_ RTR  --- 13 message 32 [0 ffffffff 6 800] ------- [6:255 -1:255 32 0] 
r 0.635610908 _10_ RTR  --- 13 message 32 [0 ffffffff 6 800] ------- [6:255 -1:255 32 0] 
r 0.635610921 _23_ RTR  --- 13 message 32 [0 ffffffff 6 800] ------- [6:255 -1:255 32 0] 
r 0.635610921 _3_ RTR  --- 13 message 32 [0 ffffffff 6 800] ------- [6:255 -1:255 32 0] 
r 0.635611199 _4_ RTR  --- 13 message 32 [0 ffffffff 6 800] ------- [6:255 -1:255 32 0] 
r 0.635611330 _15_ RTR  --- 13 message 32 [0 ffffffff 6 800] ------- [6:255 -1:255 32 0] 
s 0.705637875 _21_ RTR  --- 14 message 32 [0 0 0 0] ------- [21:255 -1:255 32 0] 
s 0.706012875 _21_ MAC  --- 14 message 90 [0 ffffffff 15 800] ------- [21:255 -1:255 32 0] 
r 0.706733463 _28_ MAC  --- 14 message 32 [0 ffffffff 15 800] ------- [21:255 -1:255 32 0] 
r 0.706733978 _12_ MAC  --- 14 message 32 [0 ffffffff 15 800] ------- [21:255 -1:255 32 0] 
r 0.706734084 _7_ MAC  --- 14 message 32 [0 ffffffff 15 800] ------- [21:255 -1:255 32 0] 
r 0.706734087 _5_ MAC  --- 14 message 32 [0 ffffffff 15 800] ------- [21:255 -1:255 32 0] 
r 0.706734184 _14_ MAC  --- 14 message 32 [0 ffffffff 15 800] ------- [21:255 -1:255 32 0] 
r 0.706758463 _28_ RTR  --- 14 message 32 [0 ffffffff 15 800] ------- [21:255 -1:255 32 0] 
r 0.706758978 _12_ RTR  --- 14 message 32 [0 ffffffff 15 800] ------- [21:255 -1:255 32 0] 
r 0.706759084 _7_ RTR  --- 14 message 32 [0 ffffffff 15 800] ------- [21:255 -1:255 32 0] 
r 0.706759087 _5_ RTR  --- 14 message 32 [0 ffffffff 15 800] ------- [21:255 -1:255 32 0] 
r 0.706759184 _14_ RTR  --- 14 message 32 [0 ffffffff 15 800] ------- [21:255 -1:255 32 0] 
s 0.821435127 _23_ RTR  --- 15 message 32 [0 0 0 0] ------- [23:255 -1:255 32 0] 
s 0.821550127 _23_ MAC  --- 15 message 90 [0 ffffffff 17 800] ------- [23:255 -1:255 32 0] 
r 0.822270475 _8_ MAC  --- 15 message 32 [0 ffffffff 17 800] ------- [23:255 -1:255 32 0] 
r 0.822270553 _4_ MAC  --- 15 message 32 [0 ffffffff 17 800] ------- [23:255 -1:255 32 0] 
r 0.822270612 _18_ MAC  --- 15 message 32 [0 ffffffff 17 800] ------- [23:255 -1:255 32 0] 
r 0.822270936 _2_ MAC  --- 15 message 32 [0 ffffffff 17 800] ------- [23:255 -1:255 32 0] 
r 0.822271042 _6_ MAC  --- 15 message 32 [0 ffffffff 17 800] ------- [23:255 -1:255 32 0] 
r 0.822271076 _15_ MAC  --- 15 message 32 [0 ffffffff 17 800] ------- [23:255 -1:255 32 0] 
r 0.822271080 _16_ MAC  --- 15 message 32 [0 ffffffff 17 800] ------- [23:255 -1:255 32 0] 
r 0.822271126 _25_ MAC  --- 15 message 32 [0 ffffffff 17 800] ------- [23:255 -1:255 32 0] 
r 0.822271270 _17_ MAC  --- 15 message 32 [0 ffffffff 17 800] ------- [23:255 -1:255 32 0] 
r 0.822271279 _11_ MAC  --- 15 message 32 [0 ffffffff 17 800] ------- [23:255 -1:255 32 0] 
r 0.822271285 _1_ MAC  --- 15 message 32 [0 ffffffff 17 800] ------- [23:255 -1:255 32 0] 
r 0.822295475 _8_ RTR  --- 15 message 32 [0 ffffffff 17 800] ------- [23:255 -1:255 32 0] 
r 0.822295553 _4_ RTR  --- 15 message 32 [0 ffffffff 17 800] ------- [23:255 -1:255 32 0] 
r 0.822295612 _18_ RTR  --- 15 message 32 [0 ffffffff 17 800] ------- [23:255 -1:255 32 0] 
r 0.822295936 _2_ RTR  --- 15 message 32 [0 ffffffff 17 800] ------- [23:255 -1:255 32 0] 
r 0.822296042 _6_ RTR  --- 15 message 32 [0 ffffffff 17 800] ------- [23:255 -1:255 32 0] 
r 0.822296076 _15_ RTR  --- 15 message 32 [0 ffffffff 17 800] ------- [23:255 -1:255 32 0] 
r 0.822296080 _16_ RTR  --- 15 message 32 [0 ffffffff 17 800] ------- [23:255 -1:255 32 0] 
r 0.822296126 _25_ RTR  --- 15 message 32 [0 ffffffff 17 800] ------- [23:255 -1:255 32 0] 
r 0.822296270 _17_ RTR  --- 15 message 32 [0 ffffffff 17 800] ------- [23:255 -1:255 32 0] 
r 0.822296279 _11_ RTR  --- 15 message 32 [0 ffffffff 17 800] ------- [23:255 -1:255 32 0] 
r 0.822296285 _1_ RTR  --- 15 message 32 [0 ffffffff 17 800] ------- [23:255 -1:255 32 0] 
s 0.848147771 _17_ RTR  --- 16 message 32 [0 0 0 0] ------- [17:255 -1:255 32 0] 
s 0.848382771 _17_ MAC  --- 16 message 90 [0 ffffffff 11 800] ------- [17:255 -1:255 32 0] 
r 0.849103682 _2_ MAC  --- 16 message 32 [0 ffffffff 11 800] ------- [17:255 -1:255 32 0] 
r 0.849103910 _18_ MAC  --- 16 message 32 [0 ffffffff 11 800] ------- [17:255 -1:255 32 0] 
r 0.849103914 _23_ MAC  --- 16 message 32 [0 ffffffff 11 800] ------- [17:255 -1:255 32 0] 
r 0.849104055 _8_ MAC  --- 16 message 32 [0 ffffffff 11 800] ------- [17:255 -1:255 32 0] 
r 0.849128682 _2_ RTR  --- 16 message 32 [0 ffffffff 11 800] ------- [17:255 -1:255 32 0] 
r 0.849128910 _18_ RTR  --- 16 message 32 [0 ffffffff 11 800] ------- [17:255 -1:255 32 0] 
r 0.849128914 _23_ RTR  --- 16 message 32 [0 ffffffff 11 800] ------- [17:255 -1:255 32 0] 
r 0.849129055 _8_ RTR  --- 16 message 32 [0 ffffffff 11 800] ------- [17:255 -1:255 32 0] 
s 0.882674688 _4_ RTR  --- 17 message 32 [0 0 0 0] ------- [4:255 -1:255 32 0] 
s 0.882909688 _4_ MAC  --- 17 message 90 [0 ffffffff 4 800] ------- [4:255 -1:255 32 0] 
r 0.883630113 _23_ MAC  --- 17 message 32 [0 ffffffff 4 800] ------- [4:255 -1:255 32 0] 
r 0.883630311 _15_ MAC  --- 17 message 32 [0 ffffffff 4 800] ------- [4:255 -1:255 32 0] 
r 0.883630390 _2_ MAC  --- 17 message 32 [0 ffffffff 4 800] ------- [4:255 -1:255 32 0] 
r 0.883630418 _8_ MAC  --- 17 message 32 [0 ffffffff 4 800] ------- [4:255 -1:255 32 0] 
r 0.883630595 _18_ MAC  --- 17 message 32 [0 ffffffff 4 800] ------- [4:255 -1:255 32 0] 
r 0.883630719 _25_ MAC  --- 17 message 32 [0 ffffffff 4 800] ------- [4:255 -1:255 32 0] 
r 0.883630880 _6_ MAC  --- 17 message 32 [0 ffffffff 4 800] ------- [4:255 -1:255 32 0] 
r 0.883630907 _11_ MAC  --- 17 message 32 [0 ffffffff 4 800] ------- [4:255 -1:255 32 0] 
r 0.883630956 _1_ MAC  --- 17 message 32 [0 ffffffff 4 800] ------- [4:255 -1:255 32 0] 
r 0.883631016 _16_ MAC  --- 17 message 32 [0 ffffffff 4 800] ------- [4:255 -1:255 32 0] 
r 0.883655113 _23_ RTR  --- 17 message 32 [0 ffffffff 4 800] ------- [4:255 -1:255 32 0] 
r 0.883655311 _15_ RTR  --- 17 message 32 [0 ffffffff 4 800] ------- [4:255 -1:255 32 0] 
r 0.883655390 _2_ RTR  --- 17 message 32 [0 ffffffff 4 800] ------- [4:255 -1:255 32 0] 
r 0.883655418 _8_ RTR  --- 17 message 32 [0 ffffffff 4 800] ------- [4:255 -1:255 32 0] 
r 0.883655595 _18_ RTR  --- 17 message 32 [0 ffffffff 4 800] ------- [4:255 -1:255 32 0] 
r 0.883655719 _25_ RTR  --- 17 message 32 [0 ffffffff 4 800] ------- [4:255 -1:255 32 0] 
r 0.883655880 _6_ RTR  --- 17 message 32 [0 ffffffff 4 800] ------- [4:255 -1:255 32 0] 
r 0.883655907 _11_ RTR  --- 17 message 32 [0 ffffffff 4 800] ------- [4:255 -1:255 32 0] 
r 0.883655956 _1_ RTR  --- 17 message 32 [0 ffffffff 4 800] ------- [4:255 -1:255 32 0] 
r 0.883656016 _16_ RTR  --- 17 message 32 [0 ffffffff 4 800] ------- [4:255 -1:255 32 0] 
s 0.935449221 _25_ RTR  --- 18 message 32 [0 0 0 0] ------- [25:255 -1:255 32 0] 
s 0.935884221 _25_ MAC  --- 18 message 90 [0 ffffffff 19 800] ------- [25:255 -1:255 32 0] 
r 0.936604417 _11_ MAC  --- 18 message 32 [0 ffffffff 19 800] ------- [25:255 -1:255 32 0] 
r 0.936604508 _1_ MAC  --- 18 message 32 [0 ffffffff 19 800] ------- [25:255 -1:255 32 0] 
r 0.936604865 _6_ MAC  --- 18 message 32 [0 ffffffff 19 800] ------- [25:255 -1:255 32 0] 
r 0.936604905 _20_ MAC  --- 18 message 32 [0 ffffffff 19 800] ------- [25:255 -1:255 32 0] 
r 0.936605068 _15_ MAC  --- 18 message 32 [0 ffffffff 19 800] ------- [25:255 -1:255 32 0] 
r 0.936605093 _8_ MAC  --- 18 message 32 [0 ffffffff 19 800] ------- [25:255 -1:255 32 0] 
r 0.936605219 _23_ MAC  --- 18 message 32 [0 ffffffff 19 800] ------- [25:255 -1:255 32 0] 
r 0.936605253 _4_ MAC  --- 18 message 32 [0 ffffffff 19 800] ------- [25:255 -1:255 32 0] 
r 0.936605262 _16_ MAC  --- 18 message 32 [0 ffffffff 19 800] ------- [25:255 -1:255 32 0] 
r 0.936605281 _19_ MAC  --- 18 message 32 [0 ffffffff 19 800] ------- [25:255 -1:255 32 0] 
r 0.936605315 _18_ MAC  --- 18 message 32 [0 ffffffff 19 800] ------- [25:255 -1:255 32 0] 
r 0.936605457 _10_ MAC  --- 18 message 32 [0 ffffffff 19 800] ------- [25:255 -1:255 32 0] 