n -t * -s 0  -x 174.31999999999999 -y 1.6499999999999999 -Z 0 -z 100  -v circle -c black
n -t * -s 1  -x 401.64999999999998 -y 10 -Z 0 -z 100  -v circle -c black
n -t * -s 2  -x 11.619999999999999 -y 248.34999999999999 -Z 0 -z 100  -v circle -c black
n -t * -s 3  -x 1.6499999999999999 -y 90.430000000000007 -Z 0 -z 100  -v circle -c black
n -t * -s 4  -x 287.37 -y 251.65000000000001 -Z 0 -z 100  -v circle -c black
n -t * -s 5  -x 586.45000000000005 -y 251.65000000000001 -Z 0 -z 100  -v circle -c black
n -t * -s 6  -x 108.44 -y 123.34999999999999 -Z 0 -z 100  -v circle -c black
n -t * -s 7  -x 1.6499999999999999 -y 40.100000000000001 -Z 0 -z 100  -v circle -c black
n -t * -s 8  -x 1.6499999999999999 -y 70.129999999999995 -Z 0 -z 100  -v circle -c black
n -t * -s 9  -x 463.38 -y 123.34999999999999 -Z 0 -z 100  -v circle -c black
n -t * -s 10  -x 658.28999999999996 -y 248.34999999999999 -Z 0 -z 100  -v circle -c black
n -t * -s 11  -x 555.77999999999997 -y 126.65000000000001 -Z 0 -z 100  -v circle -c black
n -t * -s 12  -x 279 -y 1.6499999999999999 -Z 0 -z 100  -v circle -c black
n -t * -s 13  -x 219.06 -y 251.65000000000001 -Z 0 -z 100  -v circle -c black
n -t * -s 14  -x 798.35000000000002 -y 192.19 -Z 0 -z 100  -v circle -c black
n -t * -s 15  -x 601.64999999999998 -y 117.73 -Z 0 -z 100  -v circle -c black
n -t * -s 16  -x 473.12 -y 126.65000000000001 -Z 0 -z 100  -v circle -c black
n -t * -s 17  -x 220.25 -y 1.6499999999999999 -Z 0 -z 100  -v circle -c black
n -t * -s 18  -x 601.64999999999998 -y 147.46000000000001 -Z 0 -z 100  -v circle -c black
n -t * -s 19  -x 252.47 -y 248.34999999999999 -Z 0 -z 100  -v circle -c black
n -t * -s 20  -x 601.64999999999998 -y 5.5999999999999996 -Z 0 -z 100  -v circle -c black
n -t * -s 21  -x 1.6499999999999999 -y 219.72 -Z 0 -z 100  -v circle -c black
n -t * -s 22  -x 212.28 -y 248.34999999999999 -Z 0 -z 100  -v circle -c black
n -t * -s 23  -x 179.28 -y 1.6499999999999999 -Z 0 -z 100  -v circle -c black
n -t * -s 24  -x 598.35000000000002 -y 135.05000000000001 -Z 0 -z 100  -v circle -c black
n -t * -s 25  -x 652.63999999999999 -y 1.6499999999999999 -Z 0 -z 100  -v circle -c black
n -t * -s 26  -x 798.35000000000002 -y 141.37 -Z 0 -z 100  -v circle -c black
n -t * -s 27  -x 544.30999999999995 -y 1.6499999999999999 -Z 0 -z 100  -v circle -c black
n -t * -s 28  -x 291.56 -y 126.65000000000001 -Z 0 -z 100  -v circle -c black
n -t * -s 29  -x 740.88999999999999 -y 123.34999999999999 -Z 0 -z 100  -v circle -c black
V -t * -v 1.0a5 -a 0
W -t * -x 1000 -y 1000
A -t * -n 1 -p 0 -o 0x7fffffff -c 30 -a 1
A -t * -h 1 -m 1073741823 -s 0
n -t 0.000000 -s 0 -x 174.320000 -y 1.650000 -U 0.000000 -V 0.000000 -T 0.000000
+ -t 0.003091411 -s 0 -d -1 -p message -e 32 -c 2 -a 0 -i 0 -k RTR 
- -t 0.003091411 -s 0 -d -1 -p message -e 32 -c 2 -a 0 -i 0 -k RTR
h -t 0.003091411 -s 0 -d -1 -p message -e 32 -c 2 -a 0 -i 0 -k RTR
r -t 0.004211427 -s 23 -d -1 -p message -e 32 -c 2 -a 0 -i 0 -k RTR
r -t 0.004211564 -s 17 -d -1 -p message -e 32 -c 2 -a 0 -i 0 -k RTR
r -t 0.004211760 -s 12 -d -1 -p message -e 32 -c 2 -a 0 -i 0 -k RTR
r -t 0.004211872 -s 6 -d -1 -p message -e 32 -c 2 -a 0 -i 0 -k RTR
r -t 0.004211982 -s 28 -d -1 -p message -e 32 -c 2 -a 0 -i 0 -k RTR
r -t 0.004212000 -s 7 -d -1 -p message -e 32 -c 2 -a 0 -i 0 -k RTR
r -t 0.004212030 -s 8 -d -1 -p message -e 32 -c 2 -a 0 -i 0 -k RTR
r -t 0.004212058 -s 3 -d -1 -p message -e 32 -c 2 -a 0 -i 0 -k RTR
r -t 0.004212169 -s 1 -d -1 -p message -e 32 -c 2 -a 0 -i 0 -k RTR
r -t 0.004212243 -s 22 -d -1 -p message -e 32 -c 2 -a 0 -i 0 -k RTR
+ -t 0.037458776 -s 2 -d -1 -p message -e 32 -c 2 -a 0 -i 1 -k RTR 
- -t 0.037458776 -s 2 -d -1 -p message -e 32 -c 2 -a 0 -i 1 -k RTR
h -t 0.037458776 -s 2 -d -1 -p message -e 32 -c 2 -a 0 -i 1 -k RTR
r -t 0.038558877 -s 21 -d -1 -p message -e 32 -c 2 -a 0 -i 1 -k RTR
r -t 0.038559303 -s 6 -d -1 -p message -e 32 -c 2 -a 0 -i 1 -k RTR
r -t 0.038559303 -s 3 -d -1 -p message -e 32 -c 2 -a 0 -i 1 -k RTR
r -t 0.038559371 -s 8 -d -1 -p message -e 32 -c 2 -a 0 -i 1 -k RTR
r -t 0.038559445 -s 22 -d -1 -p message -e 32 -c 2 -a 0 -i 1 -k RTR
r -t 0.038559468 -s 13 -d -1 -p message -e 32 -c 2 -a 0 -i 1 -k RTR
r -t 0.038559471 -s 7 -d -1 -p message -e 32 -c 2 -a 0 -i 1 -k RTR
r -t 0.038559579 -s 19 -d -1 -p message -e 32 -c 2 -a 0 -i 1 -k RTR
+ -t 0.087462768 -s 13 -d -1 -p message -e 32 -c 2 -a 0 -i 2 -k RTR 
- -t 0.087462768 -s 13 -d -1 -p message -e 32 -c 2 -a 0 -i 2 -k RTR
h -t 0.087462768 -s 13 -d -1 -p message -e 32 -c 2 -a 0 -i 2 -k RTR
r -t 0.088502793 -s 22 -d -1 -p message -e 32 -c 2 -a 0 -i 2 -k RTR
r -t 0.088502880 -s 19 -d -1 -p message -e 32 -c 2 -a 0 -i 2 -k RTR
r -t 0.088502996 -s 4 -d -1 -p message -e 32 -c 2 -a 0 -i 2 -k RTR
r -t 0.088503250 -s 28 -d -1 -p message -e 32 -c 2 -a 0 -i 2 -k RTR
r -t 0.088503333 -s 6 -d -1 -p message -e 32 -c 2 -a 0 -i 2 -k RTR
r -t 0.088503459 -s 2 -d -1 -p message -e 32 -c 2 -a 0 -i 2 -k RTR
r -t 0.088503500 -s 21 -d -1 -p message -e 32 -c 2 -a 0 -i 2 -k RTR
r -t 0.088503601 -s 17 -d -1 -p message -e 32 -c 2 -a 0 -i 2 -k RTR
+ -t 0.177365656 -s 3 -d -1 -p message -e 32 -c 2 -a 0 -i 3 -k RTR 
- -t 0.177365656 -s 3 -d -1 -p message -e 32 -c 2 -a 0 -i 3 -k RTR
h -t 0.177365656 -s 3 -d -1 -p message -e 32 -c 2 -a 0 -i 3 -k RTR
r -t 0.178305723 -s 8 -d -1 -p message -e 32 -c 2 -a 0 -i 3 -k RTR
r -t 0.178305824 -s 7 -d -1 -p message -e 32 -c 2 -a 0 -i 3 -k RTR
r -t 0.178306028 -s 6 -d -1 -p message -e 32 -c 2 -a 0 -i 3 -k RTR
r -t 0.178306087 -s 21 -d -1 -p message -e 32 -c 2 -a 0 -i 3 -k RTR
r -t 0.178306183 -s 2 -d -1 -p message -e 32 -c 2 -a 0 -i 3 -k RTR
r -t 0.178306303 -s 0 -d -1 -p message -e 32 -c 2 -a 0 -i 3 -k RTR
r -t 0.178306318 -s 23 -d -1 -p message -e 32 -c 2 -a 0 -i 3 -k RTR
r -t 0.178306442 -s 17 -d -1 -p message -e 32 -c 2 -a 0 -i 3 -k RTR
+ -t 0.191634337 -s 19 -d -1 -p message -e 32 -c 2 -a 0 -i 4 -k RTR 
- -t 0.191634337 -s 19 -d -1 -p message -e 32 -c 2 -a 0 -i 4 -k RTR
h -t 0.191634337 -s 19 -d -1 -p message -e 32 -c 2 -a 0 -i 4 -k RTR
r -t 0.192634449 -s 13 -d -1 -p message -e 32 -c 2 -a 0 -i 4 -k RTR
r -t 0.192634454 -s 4 -d -1 -p message -e 32 -c 2 -a 0 -i 4 -k RTR
r -t 0.192634471 -s 22 -d -1 -p message -e 32 -c 2 -a 0 -i 4 -k RTR
r -t 0.192634763 -s 28 -d -1 -p message -e 32 -c 2 -a 0 -i 4 -k RTR
r -t 0.192634972 -s 6 -d -1 -p message -e 32 -c 2 -a 0 -i 4 -k RTR
r -t 0.192635140 -s 2 -d -1 -p message -e 32 -c 2 -a 0 -i 4 -k RTR
r -t 0.192635154 -s 9 -d -1 -p message -e 32 -c 2 -a 0 -i 4 -k RTR
r -t 0.192635164 -s 12 -d -1 -p message -e 32 -c 2 -a 0 -i 4 -k RTR
r -t 0.192635166 -s 17 -d -1 -p message -e 32 -c 2 -a 0 -i 4 -k RTR
+ -t 0.234603229 -s 15 -d -1 -p message -e 32 -c 2 -a 0 -i 5 -k RTR 
- -t 0.234603229 -s 15 -d -1 -p message -e 32 -c 2 -a 0 -i 5 -k RTR
h -t 0.234603229 -s 15 -d -1 -p message -e 32 -c 2 -a 0 -i 5 -k RTR
r -t 0.235643288 -s 24 -d -1 -p message -e 32 -c 2 -a 0 -i 5 -k RTR
r -t 0.235643329 -s 18 -d -1 -p message -e 32 -c 2 -a 0 -i 5 -k RTR
r -t 0.235643385 -s 11 -d -1 -p message -e 32 -c 2 -a 0 -i 5 -k RTR
r -t 0.235643603 -s 20 -d -1 -p message -e 32 -c 2 -a 0 -i 5 -k RTR
r -t 0.235643652 -s 25 -d -1 -p message -e 32 -c 2 -a 0 -i 5 -k RTR
r -t 0.235643659 -s 16 -d -1 -p message -e 32 -c 2 -a 0 -i 5 -k RTR
r -t 0.235643661 -s 27 -d -1 -p message -e 32 -c 2 -a 0 -i 5 -k RTR
r -t 0.235643679 -s 5 -d -1 -p message -e 32 -c 2 -a 0 -i 5 -k RTR
r -t 0.235643691 -s 9 -d -1 -p message -e 32 -c 2 -a 0 -i 5 -k RTR
r -t 0.235643694 -s 29 -d -1 -p message -e 32 -c 2 -a 0 -i 5 -k RTR
r -t 0.235643704 -s 10 -d -1 -p message -e 32 -c 2 -a 0 -i 5 -k RTR
r -t 0.235643890 -s 26 -d -1 -p message -e 32 -c 2 -a 0 -i 5 -k RTR
r -t 0.235643930 -s 14 -d -1 -p message -e 32 -c 2 -a 0 -i 5 -k RTR
r -t 0.235643987 -s 1 -d -1 -p message -e 32 -c 2 -a 0 -i 5 -k RTR
+ -t 0.333839210 -s 12 -d -1 -p message -e 32 -c 2 -a 0 -i 6 -k RTR 
- -t 0.333839210 -s 12 -d -1 -p message -e 32 -c 2 -a 0 -i 6 -k RTR
h -t 0.333839210 -s 12 -d -1 -p message -e 32 -c 2 -a 0 -i 6 -k RTR
r -t 0.334739406 -s 17 -d -1 -p message -e 32 -c 2 -a 0 -i 6 -k RTR
r -t 0.334739542 -s 23 -d -1 -p message -e 32 -c 2 -a 0 -i 6 -k RTR
r -t 0.334739559 -s 0 -d -1 -p message -e 32 -c 2 -a 0 -i 6 -k RTR
r -t 0.334739620 -s 1 -d -1 -p message -e 32 -c 2 -a 0 -i 6 -k RTR
r -t 0.334739629 -s 28 -d -1 -p message -e 32 -c 2 -a 0 -i 6 -k RTR
r -t 0.334739908 -s 6 -d -1 -p message -e 32 -c 2 -a 0 -i 6 -k RTR
r -t 0.334739946 -s 9 -d -1 -p message -e 32 -c 2 -a 0 -i 6 -k RTR
r -t 0.334739980 -s 16 -d -1 -p message -e 32 -c 2 -a 0 -i 6 -k RTR
r -t 0.334740037 -s 19 -d -1 -p message -e 32 -c 2 -a 0 -i 6 -k RTR
+ -t 0.351472650 -s 18 -d -1 -p message -e 32 -c 2 -a 0 -i 7 -k RTR 
- -t 0.351472650 -s 18 -d -1 -p message -e 32 -c 2 -a 0 -i 7 -k RTR
h -t 0.351472650 -s 18 -d -1 -p message -e 32 -c 2 -a 0 -i 7 -k RTR
r -t 0.352592693 -s 24 -d -1 -p message -e 32 -c 2 -a 0 -i 7 -k RTR
r -t 0.352592749 -s 15 -d -1 -p message -e 32 -c 2 -a 0 -i 7 -k RTR
r -t 0.352592818 -s 11 -d -1 -p message -e 32 -c 2 -a 0 -i 7 -k RTR
r -t 0.352593001 -s 5 -d -1 -p message -e 32 -c 2 -a 0 -i 7 -k RTR
r -t 0.352593036 -s 10 -d -1 -p message -e 32 -c 2 -a 0 -i 7 -k RTR
r -t 0.352593084 -s 16 -d -1 -p message -e 32 -c 2 -a 0 -i 7 -k RTR
r -t 0.352593118 -s 9 -d -1 -p message -e 32 -c 2 -a 0 -i 7 -k RTR
r -t 0.352593121 -s 29 -d -1 -p message -e 32 -c 2 -a 0 -i 7 -k RTR
r -t 0.352593123 -s 20 -d -1 -p message -e 32 -c 2 -a 0 -i 7 -k RTR
r -t 0.352593165 -s 25 -d -1 -p message -e 32 -c 2 -a 0 -i 7 -k RTR
r -t 0.352593172 -s 27 -d -1 -p message -e 32 -c 2 -a 0 -i 7 -k RTR
r -t 0.352593306 -s 26 -d -1 -p message -e 32 -c 2 -a 0 -i 7 -k RTR
r -t 0.352593323 -s 14 -d -1 -p message -e 32 -c 2 -a 0 -i 7 -k RTR
r -t 0.352593459 -s 1 -d -1 -p message -e 32 -c 2 -a 0 -i 7 -k RTR
+ -t 0.436386259 -s 29 -d -1 -p message -e 32 -c 2 -a 0 -i 8 -k RTR 
- -t 0.436386259 -s 29 -d -1 -p message -e 32 -c 2 -a 0 -i 8 -k RTR
h -t 0.436386259 -s 29 -d -1 -p message -e 32 -c 2 -a 0 -i 8 -k RTR
r -t 0.437446460 -s 26 -d -1 -p message -e 32 -c 2 -a 0 -i 8 -k RTR
r -t 0.437446558 -s 14 -d -1 -p message -e 32 -c 2 -a 0 -i 8 -k RTR
r -t 0.437446724 -s 15 -d -1 -p message -e 32 -c 2 -a 0 -i 8 -k RTR
r -t 0.437446730 -s 18 -d -1 -p message -e 32 -c 2 -a 0 -i 8 -k RTR
r -t 0.437446736 -s 24 -d -1 -p message -e 32 -c 2 -a 0 -i 8 -k RTR
r -t 0.437446759 -s 10 -d -1 -p message -e 32 -c 2 -a 0 -i 8 -k RTR
r -t 0.437446760 -s 25 -d -1 -p message -e 32 -c 2 -a 0 -i 8 -k RTR
r -t 0.437446867 -s 20 -d -1 -p message -e 32 -c 2 -a 0 -i 8 -k RTR
r -t 0.437446876 -s 11 -d -1 -p message -e 32 -c 2 -a 0 -i 8 -k RTR
r -t 0.437446928 -s 5 -d -1 -p message -e 32 -c 2 -a 0 -i 8 -k RTR
r -t 0.437447030 -s 27 -d -1 -p message -e 32 -c 2 -a 0 -i 8 -k RTR
+ -t 0.470117073 -s 8 -d -1 -p message -e 32 -c 2 -a 0 -i 9 -k RTR 
- -t 0.470117073 -s 8 -d -1 -p message -e 32 -c 2 -a 0 -i 9 -k RTR
h -t 0.470117073 -s 8 -d -1 -p message -e 32 -c 2 -a 0 -i 9 -k RTR
r -t 0.471397141 -s 3 -d -1 -p message -e 32 -c 2 -a 0 -i 9 -k RTR
r -t 0.471397173 -s 7 -d -1 -p message -e 32 -c 2 -a 0 -i 9 -k RTR
r -t 0.471397471 -s 6 -d -1 -p message -e 32 -c 2 -a 0 -i 9 -k RTR
r -t 0.471397572 -s 21 -d -1 -p message -e 32 -c 2 -a 0 -i 9 -k RTR
r -t 0.471397668 -s 2 -d -1 -p message -e 32 -c 2 -a 0 -i 9 -k RTR
r -t 0.471397692 -s 0 -d -1 -p message -e 32 -c 2 -a 0 -i 9 -k RTR
r -t 0.471397707 -s 23 -d -1 -p message -e 32 -c 2 -a 0 -i 9 -k RTR
r -t 0.471397836 -s 17 -d -1 -p message -e 32 -c 2 -a 0 -i 9 -k RTR
+ -t 0.521504883 -s 22 -d -1 -p message -e 32 -c 2 -a 0 -i 10 -k RTR 
- -t 0.521504883 -s 22 -d -1 -p message -e 32 -c 2 -a 0 -i 10 -k RTR
h -t 0.521504883 -s 22 -d -1 -p message -e 32 -c 2 -a 0 -i 10 -k RTR
r -t 0.522404908 -s 13 -d -1 -p message -e 32 -c 2 -a 0 -i 10 -k RTR
r -t 0.522405017 -s 19 -d -1 -p message -e 32 -c 2 -a 0 -i 10 -k RTR
r -t 0.522405134 -s 4 -d -1 -p message -e 32 -c 2 -a 0 -i 10 -k RTR
r -t 0.522405367 -s 28 -d -1 -p message -e 32 -c 2 -a 0 -i 10 -k RTR
r -t 0.522405425 -s 6 -d -1 -p message -e 32 -c 2 -a 0 -i 10 -k RTR
r -t 0.522405552 -s 2 -d -1 -p message -e 32 -c 2 -a 0 -i 10 -k RTR
r -t 0.522405592 -s 21 -d -1 -p message -e 32 -c 2 -a 0 -i 10 -k RTR
r -t 0.522405706 -s 17 -d -1 -p message -e 32 -c 2 -a 0 -i 10 -k RTR
r -t 0.522405713 -s 23 -d -1 -p message -e 32 -c 2 -a 0 -i 10 -k RTR
r -t 0.522405715 -s 0 -d -1 -p message -e 32 -c 2 -a 0 -i 10 -k RTR
+ -t 0.626302117 -s 10 -d -1 -p message -e 32 -c 2 -a 0 -i 11 -k RTR 
- -t 0.626302117 -s 10 -d -1 -p message -e 32 -c 2 -a 0 -i 11 -k RTR
h -t 0.626302117 -s 10 -d -1 -p message -e 32 -c 2 -a 0 -i 11 -k RTR
r -t 0.627242357 -s 5 -d -1 -p message -e 32 -c 2 -a 0 -i 11 -k RTR
r -t 0.627242503 -s 18 -d -1 -p message -e 32 -c 2 -a 0 -i 11 -k RTR
r -t 0.627242544 -s 24 -d -1 -p message -e 32 -c 2 -a 0 -i 11 -k RTR
r -t 0.627242592 -s 15 -d -1 -p message -e 32 -c 2 -a 0 -i 11 -k RTR
r -t 0.627242617 -s 29 -d -1 -p message -e 32 -c 2 -a 0 -i 11 -k RTR
r -t 0.627242620 -s 14 -d -1 -p message -e 32 -c 2 -a 0 -i 11 -k RTR
r -t 0.627242648 -s 11 -d -1 -p message -e 32 -c 2 -a 0 -i 11 -k RTR
r -t 0.627242705 -s 26 -d -1 -p message -e 32 -c 2 -a 0 -i 11 -k RTR
r -t 0.627242856 -s 16 -d -1 -p message -e 32 -c 2 -a 0 -i 11 -k RTR
r -t 0.627242889 -s 9 -d -1 -p message -e 32 -c 2 -a 0 -i 11 -k RTR
r -t 0.627242940 -s 25 -d -1 -p message -e 32 -c 2 -a 0 -i 11 -k RTR
r -t 0.627242948 -s 20 -d -1 -p message -e 32 -c 2 -a 0 -i 11 -k RTR
+ -t 0.633203961 -s 6 -d -1 -p message -e 32 -c 2 -a 0 -i 12 -k RTR 
- -t 0.633203961 -s 6 -d -1 -p message -e 32 -c 2 -a 0 -i 12 -k RTR
h -t 0.633203961 -s 6 -d -1 -p message -e 32 -c 2 -a 0 -i 12 -k RTR
r -t 0.634604333 -s 3 -d -1 -p message -e 32 -c 2 -a 0 -i 12 -k RTR
r -t 0.634604359 -s 8 -d -1 -p message -e 32 -c 2 -a 0 -i 12 -k RTR
r -t 0.634604412 -s 7 -d -1 -p message -e 32 -c 2 -a 0 -i 12 -k RTR
r -t 0.634604422 -s 0 -d -1 -p message -e 32 -c 2 -a 0 -i 12 -k RTR
r -t 0.634604430 -s 23 -d -1 -p message -e 32 -c 2 -a 0 -i 12 -k RTR
r -t 0.634604440 -s 21 -d -1 -p message -e 32 -c 2 -a 0 -i 12 -k RTR
r -t 0.634604488 -s 2 -d -1 -p message -e 32 -c 2 -a 0 -i 12 -k RTR
r -t 0.634604503 -s 22 -d -1 -p message -e 32 -c 2 -a 0 -i 12 -k RTR
r -t 0.634604512 -s 17 -d -1 -p message -e 32 -c 2 -a 0 -i 12 -k RTR
r -t 0.634604526 -s 13 -d -1 -p message -e 32 -c 2 -a 0 -i 12 -k RTR
r -t 0.634604571 -s 28 -d -1 -p message -e 32 -c 2 -a 0 -i 12 -k RTR
r -t 0.634604597 -s 19 -d -1 -p message -e 32 -c 2 -a 0 -i 12 -k RTR
r -t 0.634604659 -s 12 -d -1 -p message -e 32 -c 2 -a 0 -i 12 -k RTR
r -t 0.634604695 -s 4 -d -1 -p message -e 32 -c 2 -a 0 -i 12 -k RTR
+ -t 0.703066137 -s 21 -d -1 -p message -e 32 -c 2 -a 0 -i 13 -k RTR 
- -t 0.703066137 -s 21 -d -1 -p message -e 32 -c 2 -a 0 -i 13 -k RTR
h -t 0.703066137 -s 21 -d -1 -p message -e 32 -c 2 -a 0 -i 13 -k RTR
r -t 0.704426238 -s 2 -d -1 -p message -e 32 -c 2 -a 0 -i 13 -k RTR
r -t 0.704426568 -s 3 -d -1 -p message -e 32 -c 2 -a 0 -i 13 -k RTR
r -t 0.704426616 -s 6 -d -1 -p message -e 32 -c 2 -a 0 -i 13 -k RTR
r -t 0.704426636 -s 8 -d -1 -p message -e 32 -c 2 -a 0 -i 13 -k RTR
r -t 0.704426736 -s 7 -d -1 -p message -e 32 -c 2 -a 0 -i 13 -k RTR
r -t 0.704426846 -s 22 -d -1 -p message -e 32 -c 2 -a 0 -i 13 -k RTR
r -t 0.704426869 -s 13 -d -1 -p message -e 32 -c 2 -a 0 -i 13 -k RTR
+ -t 0.818871236 -s 23 -d -1 -p message -e 32 -c 2 -a 0 -i 14 -k RTR 
- -t 0.818871236 -s 23 -d -1 -p message -e 32 -c 2 -a 0 -i 14 -k RTR
h -t 0.818871236 -s 23 -d -1 -p message -e 32 -c 2 -a 0 -i 14 -k RTR
r -t 0.820031253 -s 0 -d -1 -p message -e 32 -c 2 -a 0 -i 14 -k RTR
r -t 0.820031373 -s 17 -d -1 -p message -e 32 -c 2 -a 0 -i 14 -k RTR
r -t 0.820031569 -s 12 -d -1 -p message -e 32 -c 2 -a 0 -i 14 -k RTR
r -t 0.820031706 -s 6 -d -1 -p message -e 32 -c 2 -a 0 -i 14 -k RTR
r -t 0.820031797 -s 28 -d -1 -p message -e 32 -c 2 -a 0 -i 14 -k RTR
r -t 0.820031842 -s 7 -d -1 -p message -e 32 -c 2 -a 0 -i 14 -k RTR
r -t 0.820031871 -s 8 -d -1 -p message -e 32 -c 2 -a 0 -i 14 -k RTR
r -t 0.820031898 -s 3 -d -1 -p message -e 32 -c 2 -a 0 -i 14 -k RTR
r -t 0.820031978 -s 1 -d -1 -p message -e 32 -c 2 -a 0 -i 14 -k RTR
r -t 0.820032066 -s 22 -d -1 -p message -e 32 -c 2 -a 0 -i 14 -k RTR
+ -t 0.847315218 -s 17 -d -1 -p message -e 32 -c 2 -a 0 -i 15 -k RTR 
- -t 0.847315218 -s 17 -d -1 -p message -e 32 -c 2 -a 0 -i 15 -k RTR
h -t 0.847315218 -s 17 -d -1 -p message -e 32 -c 2 -a 0 -i 15 -k RTR
r -t 0.848315355 -s 23 -d -1 -p message -e 32 -c 2 -a 0 -i 15 -k RTR
r -t 0.848315371 -s 0 -d -1 -p message -e 32 -c 2 -a 0 -i 15 -k RTR
r -t 0.848315414 -s 12 -d -1 -p message -e 32 -c 2 -a 0 -i 15 -k RTR
r -t 0.848315698 -s 28 -d -1 -p message -e 32 -c 2 -a 0 -i 15 -k RTR
r -t 0.848315769 -s 6 -d -1 -p message -e 32 -c 2 -a 0 -i 15 -k RTR
r -t 0.848315823 -s 1 -d -1 -p message -e 32 -c 2 -a 0 -i 15 -k RTR
r -t 0.848315958 -s 7 -d -1 -p message -e 32 -c 2 -a 0 -i 15 -k RTR
r -t 0.848315982 -s 8 -d -1 -p message -e 32 -c 2 -a 0 -i 15 -k RTR
r -t 0.848316004 -s 3 -d -1 -p message -e 32 -c 2 -a 0 -i 15 -k RTR
r -t 0.848316041 -s 22 -d -1 -p message -e 32 -c 2 -a 0 -i 15 -k RTR
r -t 0.848316047 -s 19 -d -1 -p message -e 32 -c 2 -a 0 -i 15 -k RTR
r -t 0.848316051 -s 13 -d -1 -p message -e 32 -c 2 -a 0 -i 15 -k RTR
+ -t 0.891466156 -s 4 -d -1 -p message -e 32 -c 2 -a 0 -i 16 -k RTR 
- -t 0.891466156 -s 4 -d -1 -p message -e 32 -c 2 -a 0 -i 16 -k RTR
h -t 0.891466156 -s 4 -d -1 -p message -e 32 -c 2 -a 0 -i 16 -k RTR
r -t 0.892406273 -s 19 -d -1 -p message -e 32 -c 2 -a 0 -i 16 -k RTR
r -t 0.892406384 -s 13 -d -1 -p message -e 32 -c 2 -a 0 -i 16 -k RTR
r -t 0.892406407 -s 22 -d -1 -p message -e 32 -c 2 -a 0 -i 16 -k RTR
r -t 0.892406573 -s 28 -d -1 -p message -e 32 -c 2 -a 0 -i 16 -k RTR
r -t 0.892406882 -s 9 -d -1 -p message -e 32 -c 2 -a 0 -i 16 -k RTR
r -t 0.892406890 -s 6 -d -1 -p message -e 32 -c 2 -a 0 -i 16 -k RTR
r -t 0.892406902 -s 16 -d -1 -p message -e 32 -c 2 -a 0 -i 16 -k RTR
+ -t 0.932265375 -s 25 -d -1 -p message -e 32 -c 2 -a 0 -i 17 -k RTR 
- -t 0.932265375 -s 25 -d -1 -p message -e 32 -c 2 -a 0 -i 17 -k RTR
h -t 0.932265375 -s 25 -d -1 -p message -e 32 -c 2 -a 0 -i 17 -k RTR
r -t 0.933225546 -s 20 -d -1 -p message -e 32 -c 2 -a 0 -i 17 -k RTR
r -t 0.933225737 -s 27 -d -1 -p message -e 32 -c 2 -a 0 -i 17 -k RTR
r -t 0.933225798 -s 15 -d -1 -p message -e 32 -c 2 -a 0 -i 17 -k RTR
r -t 0.933225856 -s 24 -d -1 -p message -e 32 -c 2 -a 0 -i 17 -k RTR
r -t 0.933225877 -s 29 -d -1 -p message -e 32 -c 2 -a 0 -i 17 -k RTR
r -t 0.933225890 -s 18 -d -1 -p message -e 32 -c 2 -a 0 -i 17 -k RTR
r -t 0.933225903 -s 11 -d -1 -p message -e 32 -c 2 -a 0 -i 17 -k RTR
r -t 0.933226048 -s 26 -d -1 -p message -e 32 -c 2 -a 0 -i 17 -k RTR
r -t 0.933226105 -s 16 -d -1 -p message -e 32 -c 2 -a 0 -i 17 -k RTR
r -t 0.933226126 -s 9 -d -1 -p message -e 32 -c 2 -a 0 -i 17 -k RTR
r -t 0.933226175 -s 14 -d -1 -p message -e 32 -c 2 -a 0 -i 17 -k RTR
r -t 0.933226198 -s 10 -d -1 -p message -e 32 -c 2 -a 0 -i 17 -k RTR
n -t 1.000000 -s 0 -x 174.320000 -y 1.650000 -U 29.070000 -V 0.000000 -T 1.000344
n -t 1.000000 -s 1 -x 401.650000 -y 10.000000 -U 0.000000 -V 0.000000 -T 0.000000
+ -t 1.045355908 -s 24 -d -1 -p message -e 32 -c 2 -a 0 -i 18 -k RTR 
- -t 1.045355908 -s 24 -d -1 -p message -e 32 -c 2 -a 0 -i 18 -k RTR
h -t 1.045355908 -s 24 -d -1 -p message -e 32 -c 2 -a 0 -i 18 -k RTR
r -t 1.046675951 -s 18 -d -1 -p message -e 32 -c 2 -a 0 -i 18 -k RTR
r -t 1.046675967 -s 15 -d -1 -p message -e 32 -c 2 -a 0 -i 18 -k RTR
r -t 1.046676053 -s 11 -d -1 -p message -e 32 -c 2 -a 0 -i 18 -k RTR
r -t 1.046676299 -s 5 -d -1 -p message -e 32 -c 2 -a 0 -i 18 -k RTR
r -t 1.046676326 -s 16 -d -1 -p message -e 32 -c 2 -a 0 -i 18 -k RTR
r -t 1.046676335 -s 10 -d -1 -p message -e 32 -c 2 -a 0 -i 18 -k RTR
r -t 1.046676340 -s 20 -d -1 -p message -e 32 -c 2 -a 0 -i 18 -k RTR
r -t 1.046676360 -s 9 -d -1 -p message -e 32 -c 2 -a 0 -i 18 -k RTR
r -t 1.046676385 -s 29 -d -1 -p message -e 32 -c 2 -a 0 -i 18 -k RTR
r -t 1.046676388 -s 27 -d -1 -p message -e 32 -c 2 -a 0 -i 18 -k RTR
r -t 1.046676388 -s 25 -d -1 -p message -e 32 -c 2 -a 0 -i 18 -k RTR
r -t 1.046676575 -s 26 -d -1 -p message -e 32 -c 2 -a 0 -i 18 -k RTR
r -t 1.046676601 -s 14 -d -1 -p message -e 32 -c 2 -a 0 -i 18 -k RTR
r -t 1.046676685 -s 1 -d -1 -p message -e 32 -c 2 -a 0 -i 18 -k RTR
+ -t 1.117914998 -s 1 -d -1 -p message -e 32 -c 2 -a 0 -i 19 -k RTR 
- -t 1.117914998 -s 1 -d -1 -p message -e 32 -c 2 -a 0 -i 19 -k RTR
h -t 1.117914998 -s 1 -d -1 -p message -e 32 -c 2 -a 0 -i 19 -k RTR
r -t 1.118995408 -s 12 -d -1 -p message -e 32 -c 2 -a 0 -i 19 -k RTR
r -t 1.118995428 -s 9 -d -1 -p message -e 32 -c 2 -a 0 -i 19 -k RTR
r -t 1.118995454 -s 16 -d -1 -p message -e 32 -c 2 -a 0 -i 19 -k RTR
r -t 1.118995475 -s 27 -d -1 -p message -e 32 -c 2 -a 0 -i 19 -k RTR
r -t 1.118995533 -s 28 -d -1 -p message -e 32 -c 2 -a 0 -i 19 -k RTR
r -t 1.118995604 -s 17 -d -1 -p message -e 32 -c 2 -a 0 -i 19 -k RTR
r -t 1.118995643 -s 11 -d -1 -p message -e 32 -c 2 -a 0 -i 19 -k RTR
r -t 1.118995665 -s 20 -d -1 -p message -e 32 -c 2 -a 0 -i 19 -k RTR
r -t 1.118995740 -s 23 -d -1 -p message -e 32 -c 2 -a 0 -i 19 -k RTR
r -t 1.118995745 -s 0 -d -1 -p message -e 32 -c 2 -a 0 -i 19 -k RTR
r -t 1.118995755 -s 15 -d -1 -p message -e 32 -c 2 -a 0 -i 19 -k RTR
r -t 1.118995775 -s 24 -d -1 -p message -e 32 -c 2 -a 0 -i 19 -k RTR
r -t 1.118995807 -s 18 -d -1 -p message -e 32 -c 2 -a 0 -i 19 -k RTR
+ -t 1.279806438 -s 9 -d -1 -p message -e 32 -c 2 -a 0 -i 20 -k RTR 
- -t 1.279806438 -s 9 -d -1 -p message -e 32 -c 2 -a 0 -i 20 -k RTR
h -t 1.279806438 -s 9 -d -1 -p message -e 32 -c 2 -a 0 -i 20 -k RTR
r -t 1.281146472 -s 16 -d -1 -p message -e 32 -c 2 -a 0 -i 20 -k RTR
r -t 1.281146746 -s 11 -d -1 -p message -e 32 -c 2 -a 0 -i 20 -k RTR
r -t 1.281146868 -s 1 -d -1 -p message -e 32 -c 2 -a 0 -i 20 -k RTR
r -t 1.281146889 -s 24 -d -1 -p message -e 32 -c 2 -a 0 -i 20 -k RTR
r -t 1.281146899 -s 15 -d -1 -p message -e 32 -c 2 -a 0 -i 20 -k RTR
r -t 1.281146906 -s 18 -d -1 -p message -e 32 -c 2 -a 0 -i 20 -k RTR
r -t 1.281146925 -s 27 -d -1 -p message -e 32 -c 2 -a 0 -i 20 -k RTR
r -t 1.281147011 -s 28 -d -1 -p message -e 32 -c 2 -a 0 -i 20 -k RTR
r -t 1.281147030 -s 5 -d -1 -p message -e 32 -c 2 -a 0 -i 20 -k RTR
r -t 1.281147043 -s 20 -d -1 -p message -e 32 -c 2 -a 0 -i 20 -k RTR
r -t 1.281147164 -s 4 -d -1 -p message -e 32 -c 2 -a 0 -i 20 -k RTR
r -t 1.281147174 -s 12 -d -1 -p message -e 32 -c 2 -a 0 -i 20 -k RTR
r -t 1.281147188 -s 25 -d -1 -p message -e 32 -c 2 -a 0 -i 20 -k RTR
r -t 1.281147210 -s 10 -d -1 -p message -e 32 -c 2 -a 0 -i 20 -k RTR
r -t 1.281147255 -s 19 -d -1 -p message -e 32 -c 2 -a 0 -i 20 -k RTR
+ -t 1.284507540 -s 14 -d -1 -p message -e 32 -c 2 -a 0 -i 21 -k RTR 
- -t 1.284507540 -s 14 -d -1 -p message -e 32 -c 2 -a 0 -i 21 -k RTR
h -t 1.284507540 -s 14 -d -1 -p message -e 32 -c 2 -a 0 -i 21 -k RTR
r -t 1.285347709 -s 26 -d -1 -p message -e 32 -c 2 -a 0 -i 21 -k RTR
r -t 1.285347839 -s 29 -d -1 -p message -e 32 -c 2 -a 0 -i 21 -k RTR
r -t 1.285348043 -s 10 -d -1 -p message -e 32 -c 2 -a 0 -i 21 -k RTR
r -t 1.285348212 -s 18 -d -1 -p message -e 32 -c 2 -a 0 -i 21 -k RTR
r -t 1.285348233 -s 24 -d -1 -p message -e 32 -c 2 -a 0 -i 21 -k RTR
r -t 1.285348241 -s 15 -d -1 -p message -e 32 -c 2 -a 0 -i 21 -k RTR
r -t 1.285348274 -s 5 -d -1 -p message -e 32 -c 2 -a 0 -i 21 -k RTR
r -t 1.285348340 -s 25 -d -1 -p message -e 32 -c 2 -a 0 -i 21 -k RTR
+ -t 1.388917713 -s 26 -d -1 -p message -e 32 -c 2 -a 0 -i 22 -k RTR 
- -t 1.388917713 -s 26 -d -1 -p message -e 32 -c 2 -a 0 -i 22 -k RTR
h -t 1.388917713 -s 26 -d -1 -p message -e 32 -c 2 -a 0 -i 22 -k RTR
r -t 1.389757883 -s 14 -d -1 -p message -e 32 -c 2 -a 0 -i 22 -k RTR
r -t 1.389757914 -s 29 -d -1 -p message -e 32 -c 2 -a 0 -i 22 -k RTR
r -t 1.389758301 -s 10 -d -1 -p message -e 32 -c 2 -a 0 -i 22 -k RTR
r -t 1.389758369 -s 18 -d -1 -p message -e 32 -c 2 -a 0 -i 22 -k RTR
r -t 1.389758374 -s 15 -d -1 -p message -e 32 -c 2 -a 0 -i 22 -k RTR
r -t 1.389758380 -s 24 -d -1 -p message -e 32 -c 2 -a 0 -i 22 -k RTR
r -t 1.389758386 -s 25 -d -1 -p message -e 32 -c 2 -a 0 -i 22 -k RTR
r -t 1.389758510 -s 5 -d -1 -p message -e 32 -c 2 -a 0 -i 22 -k RTR
r -t 1.389758510 -s 20 -d -1 -p message -e 32 -c 2 -a 0 -i 22 -k RTR
r -t 1.389758523 -s 11 -d -1 -p message -e 32 -c 2 -a 0 -i 22 -k RTR
+ -t 1.603158648 -s 5 -d -1 -p message -e 32 -c 2 -a 0 -i 23 -k RTR 
- -t 1.603158648 -s 5 -d -1 -p message -e 32 -c 2 -a 0 -i 23 -k RTR
h -t 1.603158648 -s 5 -d -1 -p message -e 32 -c 2 -a 0 -i 23 -k RTR
r -t 1.604458888 -s 10 -d -1 -p message -e 32 -c 2 -a 0 -i 23 -k RTR
r -t 1.604458999 -s 18 -d -1 -p message -e 32 -c 2 -a 0 -i 23 -k RTR
r -t 1.604459039 -s 24 -d -1 -p message -e 32 -c 2 -a 0 -i 23 -k RTR
r -t 1.604459077 -s 11 -d -1 -p message -e 32 -c 2 -a 0 -i 23 -k RTR
r -t 1.604459097 -s 15 -d -1 -p message -e 32 -c 2 -a 0 -i 23 -k RTR
r -t 1.604459210 -s 16 -d -1 -p message -e 32 -c 2 -a 0 -i 23 -k RTR
r -t 1.604459241 -s 9 -d -1 -p message -e 32 -c 2 -a 0 -i 23 -k RTR
r -t 1.604459317 -s 29 -d -1 -p message -e 32 -c 2 -a 0 -i 23 -k RTR
r -t 1.604459382 -s 14 -d -1 -p message -e 32 -c 2 -a 0 -i 23 -k RTR
r -t 1.604459444 -s 26 -d -1 -p message -e 32 -c 2 -a 0 -i 23 -k RTR
r -t 1.604459470 -s 20 -d -1 -p message -e 32 -c 2 -a 0 -i 23 -k RTR
+ -t 1.615642244 -s 20 -d -1 -p message -e 32 -c 2 -a 0 -i 24 -k RTR 
- -t 1.615642244 -s 20 -d -1 -p message -e 32 -c 2 -a 0 -i 24 -k RTR
h -t 1.615642244 -s 20 -d -1 -p message -e 32 -c 2 -a 0 -i 24 -k RTR
r -t 1.616642415 -s 25 -d -1 -p message -e 32 -c 2 -a 0 -i 24 -k RTR
r -t 1.616642436 -s 27 -d -1 -p message -e 32 -c 2 -a 0 -i 24 -k RTR
r -t 1.616642618 -s 15 -d -1 -p message -e 32 -c 2 -a 0 -i 24 -k RTR
r -t 1.616642676 -s 11 -d -1 -p message -e 32 -c 2 -a 0 -i 24 -k RTR
r -t 1.616642676 -s 24 -d -1 -p message -e 32 -c 2 -a 0 -i 24 -k RTR
r -t 1.616642717 -s 18 -d -1 -p message -e 32 -c 2 -a 0 -i 24 -k RTR
r -t 1.616642833 -s 16 -d -1 -p message -e 32 -c 2 -a 0 -i 24 -k RTR
r -t 1.616642850 -s 9 -d -1 -p message -e 32 -c 2 -a 0 -i 24 -k RTR
r -t 1.616642852 -s 29 -d -1 -p message -e 32 -c 2 -a 0 -i 24 -k RTR
r -t 1.616642911 -s 1 -d -1 -p message -e 32 -c 2 -a 0 -i 24 -k RTR
r -t 1.616643041 -s 26 -d -1 -p message -e 32 -c 2 -a 0 -i 24 -k RTR
r -t 1.616643066 -s 5 -d -1 -p message -e 32 -c 2 -a 0 -i 24 -k RTR
r -t 1.616643075 -s 10 -d -1 -p message -e 32 -c 2 -a 0 -i 24 -k RTR
+ -t 1.641665551 -s 7 -d -1 -p message -e 32 -c 2 -a 0 -i 25 -k RTR 
- -t 1.641665551 -s 7 -d -1 -p message -e 32 -c 2 -a 0 -i 25 -k RTR
h -t 1.641665551 -s 7 -d -1 -p message -e 32 -c 2 -a 0 -i 25 -k RTR
r -t 1.642585651 -s 8 -d -1 -p message -e 32 -c 2 -a 0 -i 25 -k RTR
r -t 1.642585719 -s 3 -d -1 -p message -e 32 -c 2 -a 0 -i 25 -k RTR
r -t 1.642586002 -s 6 -d -1 -p message -e 32 -c 2 -a 0 -i 25 -k RTR
r -t 1.642586150 -s 21 -d -1 -p message -e 32 -c 2 -a 0 -i 25 -k RTR
r -t 1.642586157 -s 23 -d -1 -p message -e 32 -c 2 -a 0 -i 25 -k RTR
r -t 1.642586201 -s 0 -d -1 -p message -e 32 -c 2 -a 0 -i 25 -k RTR
r -t 1.642586246 -s 2 -d -1 -p message -e 32 -c 2 -a 0 -i 25 -k RTR
r -t 1.642586291 -s 17 -d -1 -p message -e 32 -c 2 -a 0 -i 25 -k RTR
+ -t 1.674915381 -s 11 -d -1 -p message -e 32 -c 2 -a 0 -i 26 -k RTR 
- -t 1.674915381 -s 11 -d -1 -p message -e 32 -c 2 -a 0 -i 26 -k RTR
h -t 1.674915381 -s 11 -d -1 -p message -e 32 -c 2 -a 0 -i 26 -k RTR
r -t 1.676315525 -s 24 -d -1 -p message -e 32 -c 2 -a 0 -i 26 -k RTR
r -t 1.676315537 -s 15 -d -1 -p message -e 32 -c 2 -a 0 -i 26 -k RTR
r -t 1.676315549 -s 18 -d -1 -p message -e 32 -c 2 -a 0 -i 26 -k RTR
r -t 1.676315656 -s 16 -d -1 -p message -e 32 -c 2 -a 0 -i 26 -k RTR
r -t 1.676315689 -s 9 -d -1 -p message -e 32 -c 2 -a 0 -i 26 -k RTR
r -t 1.676315799 -s 27 -d -1 -p message -e 32 -c 2 -a 0 -i 26 -k RTR
r -t 1.676315810 -s 5 -d -1 -p message -e 32 -c 2 -a 0 -i 26 -k RTR
r -t 1.676315812 -s 20 -d -1 -p message -e 32 -c 2 -a 0 -i 26 -k RTR
r -t 1.676315908 -s 25 -d -1 -p message -e 32 -c 2 -a 0 -i 26 -k RTR
r -t 1.676315911 -s 10 -d -1 -p message -e 32 -c 2 -a 0 -i 26 -k RTR
r -t 1.676315998 -s 29 -d -1 -p message -e 32 -c 2 -a 0 -i 26 -k RTR
r -t 1.676316025 -s 1 -d -1 -p message -e 32 -c 2 -a 0 -i 26 -k RTR
r -t 1.676316191 -s 26 -d -1 -p message -e 32 -c 2 -a 0 -i 26 -k RTR
+ -t 1.687590785 -s 28 -d -1 -p message -e 32 -c 2 -a 0 -i 27 -k RTR 
- -t 1.687590785 -s 28 -d -1 -p message -e 32 -c 2 -a 0 -i 27 -k RTR
h -t 1.687590785 -s 28 -d -1 -p message -e 32 -c 2 -a 0 -i 27 -k RTR
r -t 1.688551202 -s 4 -d -1 -p message -e 32 -c 2 -a 0 -i 27 -k RTR
r -t 1.688551204 -s 12 -d -1 -p message -e 32 -c 2 -a 0 -i 27 -k RTR
r -t 1.688551212 -s 19 -d -1 -p message -e 32 -c 2 -a 0 -i 27 -k RTR
r -t 1.688551265 -s 17 -d -1 -p message -e 32 -c 2 -a 0 -i 27 -k RTR
r -t 1.688551267 -s 13 -d -1 -p message -e 32 -c 2 -a 0 -i 27 -k RTR
r -t 1.688551270 -s 22 -d -1 -p message -e 32 -c 2 -a 0 -i 27 -k RTR
r -t 1.688551313 -s 0 -d -1 -p message -e 32 -c 2 -a 0 -i 27 -k RTR
r -t 1.688551320 -s 1 -d -1 -p message -e 32 -c 2 -a 0 -i 27 -k RTR
r -t 1.688551346 -s 23 -d -1 -p message -e 32 -c 2 -a 0 -i 27 -k RTR
r -t 1.688551358 -s 9 -d -1 -p message -e 32 -c 2 -a 0 -i 27 -k RTR
r -t 1.688551391 -s 16 -d -1 -p message -e 32 -c 2 -a 0 -i 27 -k RTR
r -t 1.688551396 -s 6 -d -1 -p message -e 32 -c 2 -a 0 -i 27 -k RTR
+ -t 1.723873826 -s 16 -d -1 -p message -e 32 -c 2 -a 0 -i 28 -k RTR 
- -t 1.723873826 -s 16 -d -1 -p message -e 32 -c 2 -a 0 -i 28 -k RTR
h -t 1.723873826 -s 16 -d -1 -p message -e 32 -c 2 -a 0 -i 28 -k RTR
r -t 1.724873860 -s 9 -d -1 -p message -e 32 -c 2 -a 0 -i 28 -k RTR
r -t 1.724874101 -s 11 -d -1 -p message -e 32 -c 2 -a 0 -i 28 -k RTR
r -t 1.724874244 -s 24 -d -1 -p message -e 32 -c 2 -a 0 -i 28 -k RTR
r -t 1.724874255 -s 15 -d -1 -p message -e 32 -c 2 -a 0 -i 28 -k RTR
r -t 1.724874260 -s 18 -d -1 -p message -e 32 -c 2 -a 0 -i 28 -k RTR
r -t 1.724874282 -s 1 -d -1 -p message -e 32 -c 2 -a 0 -i 28 -k RTR
r -t 1.724874305 -s 27 -d -1 -p message -e 32 -c 2 -a 0 -i 28 -k RTR
r -t 1.724874388 -s 5 -d -1 -p message -e 32 -c 2 -a 0 -i 28 -k RTR
r -t 1.724874414 -s 20 -d -1 -p message -e 32 -c 2 -a 0 -i 28 -k RTR