M 0.0 nn 40 x 1700 y 1700 rp DSDV
M 0.0 sc dsdv-update.tcl cp trafic seed 1.0
M 0.0 prop Propagation/TwoRayGround ant Antenna/OmniAntenna
M 0.00000 0 (992.56, 659.17, 0.00), (992.56, 659.17), 0.00
M 0.00000 1 (732.67, 941.23, 0.00), (732.67, 941.23), 0.00
M 0.00000 2 (616.18, 639.31, 0.00), (616.18, 639.31), 0.00
M 0.00000 3 (642.11, 1147.42, 0.00), (642.11, 1147.42), 0.00
M 0.00000 4 (849.31, 1269.57, 0.00), (849.31, 1269.57), 0.00
M 0.00000 5 (842.58, 263.48, 0.00), (842.58, 263.48), 0.00
M 0.00000 6 (318.29, 521.17, 0.00), (318.29, 521.17), 0.00
M 0.00000 7 (829.85, 848.73, 0.00), (829.85, 848.73), 0.00
M 0.00000 8 (121.14, 858.34, 0.00), (121.14, 858.34), 0.00
M 0.00000 9 (21.07, 1318.04, 0.00), (21.07, 1318.04), 0.00
M 0.00000 10 (1164.25, 859.02, 0.00), (1164.25, 859.02), 0.00
M 0.00000 11 (909.83, 513.14, 0.00), (909.83, 513.14), 0.00
M 0.00000 12 (839.30, 333.85, 0.00), (839.30, 333.85), 0.00
M 0.00000 13 (1015.10, 1365.89, 0.00), (1015.10, 1365.89), 0.00
M 0.00000 14 (149.47, 978.65, 0.00), (149.47, 978.65), 0.00
M 0.00000 15 (83.80, 781.31, 0.00), (83.80, 781.31), 0.00
M 0.00000 16 (581.75, 112.72, 0.00), (581.75, 112.72), 0.00
M 0.00000 17 (55.38, 321.98, 0.00), (55.38, 321.98), 0.00
M 0.00000 18 (888.24, 600.50, 0.00), (888.24, 600.50), 0.00
M 0.00000 19 (18.66, 1403.39, 0.00), (18.66, 1403.39), 0.00
M 0.00000 20 (105.75, 1039.05, 0.00), (105.75, 1039.05), 0.00
M 0.00000 21 (151.91, 669.77, 0.00), (151.91, 669.77), 0.00
M 0.00000 22 (530.59, 1200.05, 0.00), (530.59, 1200.05), 0.00
M 0.00000 23 (779.90, 460.36, 0.00), (779.90, 460.36), 0.00
M 0.00000 24 (659.68, 1306.33, 0.00), (659.68, 1306.33), 0.00
M 0.00000 25 (587.00, 1317.18, 0.00), (587.00, 1317.18), 0.00
M 0.00000 26 (167.11, 1147.10, 0.00), (167.11, 1147.10), 0.00
M 0.00000 27 (818.02, 1351.24, 0.00), (818.02, 1351.24), 0.00
M 0.00000 28 (218.08, 1346.54, 0.00), (218.08, 1346.54), 0.00
M 0.00000 29 (1025.60, 501.43, 0.00), (1025.60, 501.43), 0.00
M 0.00000 30 (669.41, 1421.43, 0.00), (669.41, 1421.43), 0.00
M 0.00000 31 (164.04, 675.11, 0.00), (164.04, 675.11), 0.00
M 0.00000 32 (500.00, 517.45, 0.00), (500.00, 517.45), 0.00
M 0.00000 33 (206.78, 701.78, 0.00), (206.78, 701.78), 0.00
M 0.00000 34 (668.77, 234.31, 0.00), (668.77, 234.31), 0.00
M 0.00000 35 (1315.59, 737.34, 0.00), (1315.59, 737.34), 0.00
M 0.00000 0 (992.56, 659.17, 0.00), (992.56, 659.17), 17.25
M 0.00000 1 (732.67, 941.23, 0.00), (732.67, 941.23), 31.18
s 0.010141804 _0_ RTR  --- 0 message 32 [0 0 0 0] ------- [0:255 -1:255 32 0] 
s 0.010796804 _0_ MAC  --- 0 message 90 [0 ffffffff 0 800] ------- [0:255 -1:255 32 0] 
r 0.011517203 _18_ MAC  --- 0 message 32 [0 ffffffff 0 800] ------- [0:255 -1:255 32 0] 
r 0.011517341 _29_ MAC  --- 0 message 32 [0 ffffffff 0 800] ------- [0:255 -1:255 32 0] 
r 0.011517363 _11_ MAC  --- 0 message 32 [0 ffffffff 0 800] ------- [0:255 -1:255 32 0] 
r 0.011517637 _7_ MAC  --- 0 message 32 [0 ffffffff 0 800] ------- [0:255 -1:255 32 0] 
r 0.011517682 _10_ MAC  --- 0 message 32 [0 ffffffff 0 800] ------- [0:255 -1:255 32 0] 
r 0.011517774 _23_ MAC  --- 0 message 32 [0 ffffffff 0 800] ------- [0:255 -1:255 32 0] 
r 0.011517912 _35_ MAC  --- 0 message 32 [0 ffffffff 0 800] ------- [0:255 -1:255 32 0] 
r 0.011518003 _12_ MAC  --- 0 message 32 [0 ffffffff 0 800] ------- [0:255 -1:255 32 0] 
r 0.011518060 _2_ MAC  --- 0 message 32 [0 ffffffff 0 800] ------- [0:255 -1:255 32 0] 
r 0.011518082 _1_ MAC  --- 0 message 32 [0 ffffffff 0 800] ------- [0:255 -1:255 32 0] 
r 0.011542203 _18_ RTR  --- 0 message 32 [0 ffffffff 0 800] ------- [0:255 -1:255 32 0] 
r 0.011542341 _29_ RTR  --- 0 message 32 [0 ffffffff 0 800] ------- [0:255 -1:255 32 0] 
r 0.011542363 _11_ RTR  --- 0 message 32 [0 ffffffff 0 800] ------- [0:255 -1:255 32 0] 
r 0.011542637 _7_ RTR  --- 0 message 32 [0 ffffffff 0 800] ------- [0:255 -1:255 32 0] 
r 0.011542682 _10_ RTR  --- 0 message 32 [0 ffffffff 0 800] ------- [0:255 -1:255 32 0] 
r 0.011542774 _23_ RTR  --- 0 message 32 [0 ffffffff 0 800] ------- [0:255 -1:255 32 0] 
r 0.011542912 _35_ RTR  --- 0 message 32 [0 ffffffff 0 800] ------- [0:255 -1:255 32 0] 
r 0.011543003 _12_ RTR  --- 0 message 32 [0 ffffffff 0 800] ------- [0:255 -1:255 32 0] 
r 0.011543060 _2_ RTR  --- 0 message 32 [0 ffffffff 0 800] ------- [0:255 -1:255 32 0] 
r 0.011543082 _1_ RTR  --- 0 message 32 [0 ffffffff 0 800] ------- [0:255 -1:255 32 0] 
s 0.028517405 _2_ RTR  --- 1 message 32 [0 0 0 0] ------- [2:255 -1:255 32 0] 
s 0.029092405 _2_ MAC  --- 1 message 90 [0 ffffffff 2 800] ------- [2:255 -1:255 32 0] 
r 0.029812966 _32_ MAC  --- 1 message 32 [0 ffffffff 2 800] ------- [2:255 -1:255 32 0] 
r 0.029813213 _23_ MAC  --- 1 message 32 [0 ffffffff 2 800] ------- [2:255 -1:255 32 0] 
r 0.029813321 _18_ MAC  --- 1 message 32 [0 ffffffff 2 800] ------- [2:255 -1:255 32 0] 
r 0.029813402 _7_ MAC  --- 1 message 32 [0 ffffffff 2 800] ------- [2:255 -1:255 32 0] 
r 0.029813470 _11_ MAC  --- 1 message 32 [0 ffffffff 2 800] ------- [2:255 -1:255 32 0] 
r 0.029813473 _6_ MAC  --- 1 message 32 [0 ffffffff 2 800] ------- [2:255 -1:255 32 0] 
r 0.029813483 _1_ MAC  --- 1 message 32 [0 ffffffff 2 800] ------- [2:255 -1:255 32 0] 
r 0.029813661 _0_ MAC  --- 1 message 32 [0 ffffffff 2 800] ------- [2:255 -1:255 32 0] 
r 0.029813666 _12_ MAC  --- 1 message 32 [0 ffffffff 2 800] ------- [2:255 -1:255 32 0] 
r 0.029837966 _32_ RTR  --- 1 message 32 [0 ffffffff 2 800] ------- [2:255 -1:255 32 0] 
r 0.029838213 _23_ RTR  --- 1 message 32 [0 ffffffff 2 800] ------- [2:255 -1:255 32 0] 
r 0.029838321 _18_ RTR  --- 1 message 32 [0 ffffffff 2 800] ------- [2:255 -1:255 32 0] 
r 0.029838402 _7_ RTR  --- 1 message 32 [0 ffffffff 2 800] ------- [2:255 -1:255 32 0] 
r 0.029838470 _11_ RTR  --- 1 message 32 [0 ffffffff 2 800] ------- [2:255 -1:255 32 0] 
r 0.029838473 _6_ RTR  --- 1 message 32 [0 ffffffff 2 800] ------- [2:255 -1:255 32 0] 
r 0.029838483 _1_ RTR  --- 1 message 32 [0 ffffffff 2 800] ------- [2:255 -1:255 32 0] 
r 0.029838661 _0_ RTR  --- 1 message 32 [0 ffffffff 2 800] ------- [2:255 -1:255 32 0] 
r 0.029838666 _12_ RTR  --- 1 message 32 [0 ffffffff 2 800] ------- [2:255 -1:255 32 0] 
s 0.092275354 _13_ RTR  --- 2 message 32 [0 0 0 0] ------- [13:255 -1:255 32 0] 
s 0.092830354 _13_ MAC  --- 2 message 90 [0 ffffffff d 800] ------- [13:255 -1:255 32 0] 
r 0.093550994 _4_ MAC  --- 2 message 32 [0 ffffffff d 800] ------- [13:255 -1:255 32 0] 
r 0.093551013 _27_ MAC  --- 2 message 32 [0 ffffffff d 800] ------- [13:255 -1:255 32 0] 
r 0.093551521 _30_ MAC  --- 2 message 32 [0 ffffffff d 800] ------- [13:255 -1:255 32 0] 
r 0.093551556 _24_ MAC  --- 2 message 32 [0 ffffffff d 800] ------- [13:255 -1:255 32 0] 
r 0.093575994 _4_ RTR  --- 2 message 32 [0 ffffffff d 800] ------- [13:255 -1:255 32 0] 
r 0.093576013 _27_ RTR  --- 2 message 32 [0 ffffffff d 800] ------- [13:255 -1:255 32 0] 
r 0.093576521 _30_ RTR  --- 2 message 32 [0 ffffffff d 800] ------- [13:255 -1:255 32 0] 
r 0.093576556 _24_ RTR  --- 2 message 32 [0 ffffffff d 800] ------- [13:255 -1:255 32 0] 
s 0.185011899 _3_ RTR  --- 3 message 32 [0 0 0 0] ------- [3:255 -1:255 32 0] 
s 0.185246899 _3_ MAC  --- 3 message 90 [0 ffffffff 3 800] ------- [3:255 -1:255 32 0] 
r 0.185967310 _22_ MAC  --- 3 message 32 [0 ffffffff 3 800] ------- [3:255 -1:255 32 0] 
r 0.185967432 _24_ MAC  --- 3 message 32 [0 ffffffff 3 800] ------- [3:255 -1:255 32 0] 
r 0.185967494 _25_ MAC  --- 3 message 32 [0 ffffffff 3 800] ------- [3:255 -1:255 32 0] 
r 0.185967650 _1_ MAC  --- 3 message 32 [0 ffffffff 3 800] ------- [3:255 -1:255 32 0] 
r 0.185967701 _4_ MAC  --- 3 message 32 [0 ffffffff 3 800] ------- [3:255 -1:255 32 0] 
r 0.185967797 _27_ MAC  --- 3 message 32 [0 ffffffff 3 800] ------- [3:255 -1:255 32 0] 
r 0.185967817 _30_ MAC  --- 3 message 32 [0 ffffffff 3 800] ------- [3:255 -1:255 32 0] 
r 0.185968075 _7_ MAC  --- 3 message 32 [0 ffffffff 3 800] ------- [3:255 -1:255 32 0] 
r 0.185992310 _22_ RTR  --- 3 message 32 [0 ffffffff 3 800] ------- [3:255 -1:255 32 0] 
r 0.185992432 _24_ RTR  --- 3 message 32 [0 ffffffff 3 800] ------- [3:255 -1:255 32 0] 
r 0.185992494 _25_ RTR  --- 3 message 32 [0 ffffffff 3 800] ------- [3:255 -1:255 32 0] 
r 0.185992650 _1_ RTR  --- 3 message 32 [0 ffffffff 3 800] ------- [3:255 -1:255 32 0] 
r 0.185992701 _4_ RTR  --- 3 message 32 [0 ffffffff 3 800] ------- [3:255 -1:255 32 0] 
r 0.185992797 _27_ RTR  --- 3 message 32 [0 ffffffff 3 800] ------- [3:255 -1:255 32 0] 
r 0.185992817 _30_ RTR  --- 3 message 32 [0 ffffffff 3 800] ------- [3:255 -1:255 32 0] 
r 0.185993075 _7_ RTR  --- 3 message 32 [0 ffffffff 3 800] ------- [3:255 -1:255 32 0] 
s 0.188553284 _19_ RTR  --- 4 message 32 [0 0 0 0] ------- [19:255 -1:255 32 0] 
s 0.188628284 _19_ MAC  --- 4 message 90 [0 ffffffff 13 800] ------- [19:255 -1:255 32 0] 
r 0.189348568 _9_ MAC  --- 4 message 32 [0 ffffffff 13 800] ------- [19:255 -1:255 32 0] 
r 0.189348975 _28_ MAC  --- 4 message 32 [0 ffffffff 13 800] ------- [19:255 -1:255 32 0] 
r 0.189349271 _26_ MAC  --- 4 message 32 [0 ffffffff 13 800] ------- [19:255 -1:255 32 0] 
r 0.189349533 _20_ MAC  --- 4 message 32 [0 ffffffff 13 800] ------- [19:255 -1:255 32 0] 
r 0.189373568 _9_ RTR  --- 4 message 32 [0 ffffffff 13 800] ------- [19:255 -1:255 32 0] 
r 0.189373975 _28_ RTR  --- 4 message 32 [0 ffffffff 13 800] ------- [19:255 -1:255 32 0] 
r 0.189374271 _26_ RTR  --- 4 message 32 [0 ffffffff 13 800] ------- [19:255 -1:255 32 0] 
r 0.189374533 _20_ RTR  --- 4 message 32 [0 ffffffff 13 800] ------- [19:255 -1:255 32 0] 
s 0.227865106 _36_ RTR  --- 5 message 32 [0 0 0 0] ------- [36:255 -1:255 32 0] 
s 0.228180106 _36_ MAC  --- 5 message 90 [0 ffffffff 24 800] ------- [36:255 -1:255 32 0] 
r 0.228900106 _37_ MAC  --- 5 message 32 [0 ffffffff 24 800] ------- [36:255 -1:255 32 0] 
r 0.228901195 _17_ MAC  --- 5 message 32 [0 ffffffff 24 800] ------- [36:255 -1:255 32 0] 
r 0.228925106 _37_ RTR  --- 5 message 32 [0 ffffffff 24 800] ------- [36:255 -1:255 32 0] 
r 0.228926195 _17_ RTR  --- 5 message 32 [0 ffffffff 24 800] ------- [36:255 -1:255 32 0] 
s 0.229683837 _15_ RTR  --- 6 message 32 [0 0 0 0] ------- [15:255 -1:255 32 0] 
s 0.230058837 _15_ MAC  --- 6 message 90 [0 ffffffff f 800] ------- [15:255 -1:255 32 0] 
r 0.230779123 _8_ MAC  --- 6 message 32 [0 ffffffff f 800] ------- [15:255 -1:255 32 0] 
r 0.230779273 _21_ MAC  --- 6 message 32 [0 ffffffff f 800] ------- [15:255 -1:255 32 0] 
r 0.230779281 _31_ MAC  --- 6 message 32 [0 ffffffff f 800] ------- [15:255 -1:255 32 0] 
r 0.230779326 _33_ MAC  --- 6 message 32 [0 ffffffff f 800] ------- [15:255 -1:255 32 0] 
r 0.230779531 _14_ MAC  --- 6 message 32 [0 ffffffff f 800] ------- [15:255 -1:255 32 0] 
r 0.230779618 _38_ MAC  --- 6 message 32 [0 ffffffff f 800] ------- [15:255 -1:255 32 0] 
r 0.230779700 _20_ MAC  --- 6 message 32 [0 ffffffff f 800] ------- [15:255 -1:255 32 0] 
r 0.230780005 _6_ MAC  --- 6 message 32 [0 ffffffff f 800] ------- [15:255 -1:255 32 0] 
r 0.230780088 _26_ MAC  --- 6 message 32 [0 ffffffff f 800] ------- [15:255 -1:255 32 0] 
r 0.230804123 _8_ RTR  --- 6 message 32 [0 ffffffff f 800] ------- [15:255 -1:255 32 0] 
r 0.230804273 _21_ RTR  --- 6 message 32 [0 ffffffff f 800] ------- [15:255 -1:255 32 0] 
r 0.230804281 _31_ RTR  --- 6 message 32 [0 ffffffff f 800] ------- [15:255 -1:255 32 0] 
r 0.230804326 _33_ RTR  --- 6 message 32 [0 ffffffff f 800] ------- [15:255 -1:255 32 0] 
r 0.230804531 _14_ RTR  --- 6 message 32 [0 ffffffff f 800] ------- [15:255 -1:255 32 0] 
r 0.230804618 _38_ RTR  --- 6 message 32 [0 ffffffff f 800] ------- [15:255 -1:255 32 0] 
r 0.230804700 _20_ RTR  --- 6 message 32 [0 ffffffff f 800] ------- [15:255 -1:255 32 0] 
r 0.230805005 _6_ RTR  --- 6 message 32 [0 ffffffff f 800] ------- [15:255 -1:255 32 0] 
r 0.230805088 _26_ RTR  --- 6 message 32 [0 ffffffff f 800] ------- [15:255 -1:255 32 0] 
s 0.328792147 _12_ RTR  --- 7 message 32 [0 0 0 0] ------- [12:255 -1:255 32 0] 
s 0.329067147 _12_ MAC  --- 7 message 90 [0 ffffffff c 800] ------- [12:255 -1:255 32 0] 
r 0.329787382 _5_ MAC  --- 7 message 32 [0 ffffffff c 800] ------- [12:255 -1:255 32 0] 
r 0.329787613 _23_ MAC  --- 7 message 32 [0 ffffffff c 800] ------- [12:255 -1:255 32 0] 
r 0.329787789 _11_ MAC  --- 7 message 32 [0 ffffffff c 800] ------- [12:255 -1:255 32 0] 
r 0.329787805 _34_ MAC  --- 7 message 32 [0 ffffffff c 800] ------- [12:255 -1:255 32 0] 
r 0.329787983 _29_ MAC  --- 7 message 32 [0 ffffffff c 800] ------- [12:255 -1:255 32 0] 
r 0.329788051 _18_ MAC  --- 7 message 32 [0 ffffffff c 800] ------- [12:255 -1:255 32 0] 
r 0.329788279 _16_ MAC  --- 7 message 32 [0 ffffffff c 800] ------- [12:255 -1:255 32 0] 
r 0.329788346 _0_ MAC  --- 7 message 32 [0 ffffffff c 800] ------- [12:255 -1:255 32 0] 
r 0.329788382 _39_ MAC  --- 7 message 32 [0 ffffffff c 800] ------- [12:255 -1:255 32 0] 
r 0.329788408 _2_ MAC  --- 7 message 32 [0 ffffffff c 800] ------- [12:255 -1:255 32 0] 
r 0.329788433 _32_ MAC  --- 7 message 32 [0 ffffffff c 800] ------- [12:255 -1:255 32 0] 
r 0.329812382 _5_ RTR  --- 7 message 32 [0 ffffffff c 800] ------- [12:255 -1:255 32 0] 
r 0.329812613 _23_ RTR  --- 7 message 32 [0 ffffffff c 800] ------- [12:255 -1:255 32 0] 
r 0.329812789 _11_ RTR  --- 7 message 32 [0 ffffffff c 800] ------- [12:255 -1:255 32 0] 
r 0.329812805 _34_ RTR  --- 7 message 32 [0 ffffffff c 800] ------- [12:255 -1:255 32 0] 
r 0.329812983 _29_ RTR  --- 7 message 32 [0 ffffffff c 800] ------- [12:255 -1:255 32 0] 
r 0.329813051 _18_ RTR  --- 7 message 32 [0 ffffffff c 800] ------- [12:255 -1:255 32 0] 
r 0.329813279 _16_ RTR  --- 7 message 32 [0 ffffffff c 800] ------- [12:255 -1:255 32 0] 
r 0.329813346 _0_ RTR  --- 7 message 32 [0 ffffffff c 800] ------- [12:255 -1:255 32 0] 
r 0.329813382 _39_ RTR  --- 7 message 32 [0 ffffffff c 800] ------- [12:255 -1:255 32 0] 
r 0.329813408 _2_ RTR  --- 7 message 32 [0 ffffffff c 800] ------- [12:255 -1:255 32 0] 
r 0.329813433 _32_ RTR  --- 7 message 32 [0 ffffffff c 800] ------- [12:255 -1:255 32 0] 
s 0.353822708 _18_ RTR  --- 8 message 32 [0 0 0 0] ------- [18:255 -1:255 32 0] 
s 0.354097708 _18_ MAC  --- 8 message 90 [0 ffffffff 12 800] ------- [18:255 -1:255 32 0] 
r 0.354818008 _11_ MAC  --- 8 message 32 [0 ffffffff 12 800] ------- [18:255 -1:255 32 0] 
r 0.354818107 _0_ MAC  --- 8 message 32 [0 ffffffff 12 800] ------- [18:255 -1:255 32 0] 
r 0.354818273 _29_ MAC  --- 8 message 32 [0 ffffffff 12 800] ------- [18:255 -1:255 32 0] 
r 0.354818299 _23_ MAC  --- 8 message 32 [0 ffffffff 12 800] ------- [18:255 -1:255 32 0] 
r 0.354818558 _7_ MAC  --- 8 message 32 [0 ffffffff 12 800] ------- [18:255 -1:255 32 0] 
r 0.354818612 _12_ MAC  --- 8 message 32 [0 ffffffff 12 800] ------- [18:255 -1:255 32 0] 
r 0.354818624 _2_ MAC  --- 8 message 32 [0 ffffffff 12 800] ------- [18:255 -1:255 32 0] 
r 0.354818842 _5_ MAC  --- 8 message 32 [0 ffffffff 12 800] ------- [18:255 -1:255 32 0] 
r 0.354818957 _1_ MAC  --- 8 message 32 [0 ffffffff 12 800] ------- [18:255 -1:255 32 0] 
r 0.354818969 _10_ MAC  --- 8 message 32 [0 ffffffff 12 800] ------- [18:255 -1:255 32 0] 
r 0.354819032 _32_ MAC  --- 8 message 32 [0 ffffffff 12 800] ------- [18:255 -1:255 32 0] 
r 0.354843008 _11_ RTR  --- 8 message 32 [0 ffffffff 12 800] ------- [18:255 -1:255 32 0] 
r 0.354843107 _0_ RTR  --- 8 message 32 [0 ffffffff 12 800] ------- [18:255 -1:255 32 0] 
r 0.354843273 _29_ RTR  --- 8 message 32 [0 ffffffff 12 800] ------- [18:255 -1:255 32 0] 
r 0.354843299 _23_ RTR  --- 8 message 32 [0 ffffffff 12 800] ------- [18:255 -1:255 32 0] 
r 0.354843558 _7_ RTR  --- 8 message 32 [0 ffffffff 12 800] ------- [18:255 -1:255 32 0] 
r 0.354843612 _12_ RTR  --- 8 message 32 [0 ffffffff 12 800] ------- [18:255 -1:255 32 0] 
r 0.354843624 _2_ RTR  --- 8 message 32 [0 ffffffff 12 800] ------- [18:255 -1:255 32 0] 
r 0.354843842 _5_ RTR  --- 8 message 32 [0 ffffffff 12 800] ------- [18:255 -1:255 32 0] 
r 0.354843957 _1_ RTR  --- 8 message 32 [0 ffffffff 12 800] ------- [18:255 -1:255 32 0] 
r 0.354843969 _10_ RTR  --- 8 message 32 [0 ffffffff 12 800] ------- [18:255 -1:255 32 0] 
r 0.354844032 _32_ RTR  --- 8 message 32 [0 ffffffff 12 800] ------- [18:255 -1:255 32 0] 
s 0.382010901 _38_ RTR  --- 9 message 32 [0 0 0 0] ------- [38:255 -1:255 32 0] 
s 0.382205901 _38_ MAC  --- 9 message 90 [0 ffffffff 26 800] ------- [38:255 -1:255 32 0] 
r 0.382926277 _20_ MAC  --- 9 message 32 [0 ffffffff 26 800] ------- [38:255 -1:255 32 0] 
r 0.382926405 _14_ MAC  --- 9 message 32 [0 ffffffff 26 800] ------- [38:255 -1:255 32 0] 
r 0.382926523 _8_ MAC  --- 9 message 32 [0 ffffffff 26 800] ------- [38:255 -1:255 32 0] 
r 0.382926643 _26_ MAC  --- 9 message 32 [0 ffffffff 26 800] ------- [38:255 -1:255 32 0] 
r 0.382926682 _15_ MAC  --- 9 message 32 [0 ffffffff 26 800] ------- [38:255 -1:255 32 0] 
r 0.382926964 _9_ MAC  --- 9 message 32 [0 ffffffff 26 800] ------- [38:255 -1:255 32 0] 
r 0.382927111 _33_ MAC  --- 9 message 32 [0 ffffffff 26 800] ------- [38:255 -1:255 32 0] 
r 0.382927113 _21_ MAC  --- 9 message 32 [0 ffffffff 26 800] ------- [38:255 -1:255 32 0] 
r 0.382927115 _31_ MAC  --- 9 message 32 [0 ffffffff 26 800] ------- [38:255 -1:255 32 0] 
r 0.382951277 _20_ RTR  --- 9 message 32 [0 ffffffff 26 800] ------- [38:255 -1:255 32 0] 
r 0.382951405 _14_ RTR  --- 9 message 32 [0 ffffffff 26 800] ------- [38:255 -1:255 32 0] 
r 0.382951523 _8_ RTR  --- 9 message 32 [0 ffffffff 26 800] ------- [38:255 -1:255 32 0] 
r 0.382951643 _26_ RTR  --- 9 message 32 [0 ffffffff 26 800] ------- [38:255 -1:255 32 0] 
r 0.382951682 _15_ RTR  --- 9 message 32 [0 ffffffff 26 800] ------- [38:255 -1:255 32 0] 
r 0.382951964 _9_ RTR  --- 9 message 32 [0 ffffffff 26 800] ------- [38:255 -1:255 32 0] 
r 0.382952111 _33_ RTR  --- 9 message 32 [0 ffffffff 26 800] ------- [38:255 -1:255 32 0] 
r 0.382952113 _21_ RTR  --- 9 message 32 [0 ffffffff 26 800] ------- [38:255 -1:255 32 0] 
r 0.382952115 _31_ RTR  --- 9 message 32 [0 ffffffff 26 800] ------- [38:255 -1:255 32 0] 
s 0.442339037 _29_ RTR  --- 10 message 32 [0 0 0 0] ------- [29:255 -1:255 32 0] 
s 0.443014037 _29_ MAC  --- 10 message 90 [0 ffffffff 1d 800] ------- [29:255 -1:255 32 0] 
r 0.443734425 _11_ MAC  --- 10 message 32 [0 ffffffff 1d 800] ------- [29:255 -1:255 32 0] 
r 0.443734575 _0_ MAC  --- 10 message 32 [0 ffffffff 1d 800] ------- [29:255 -1:255 32 0] 
r 0.443734602 _18_ MAC  --- 10 message 32 [0 ffffffff 1d 800] ------- [29:255 -1:255 32 0] 
r 0.443734868 _23_ MAC  --- 10 message 32 [0 ffffffff 1d 800] ------- [29:255 -1:255 32 0] 
r 0.443734873 _12_ MAC  --- 10 message 32 [0 ffffffff 1d 800] ------- [29:255 -1:255 32 0] 
r 0.443735038 _5_ MAC  --- 10 message 32 [0 ffffffff 1d 800] ------- [29:255 -1:255 32 0] 
r 0.443735284 _35_ MAC  --- 10 message 32 [0 ffffffff 1d 800] ------- [29:255 -1:255 32 0] 
r 0.443735316 _10_ MAC  --- 10 message 32 [0 ffffffff 1d 800] ------- [29:255 -1:255 32 0] 
r 0.443735366 _7_ MAC  --- 10 message 32 [0 ffffffff 1d 800] ------- [29:255 -1:255 32 0] 
r 0.443759425 _11_ RTR  --- 10 message 32 [0 ffffffff 1d 800] ------- [29:255 -1:255 32 0] 
r 0.443759575 _0_ RTR  --- 10 message 32 [0 ffffffff 1d 800] ------- [29:255 -1:255 32 0] 
r 0.443759602 _18_ RTR  --- 10 message 32 [0 ffffffff 1d 800] ------- [29:255 -1:255 32 0] 
r 0.443759868 _23_ RTR  --- 10 message 32 [0 ffffffff 1d 800] ------- [29:255 -1:255 32 0] 
r 0.443759873 _12_ RTR  --- 10 message 32 [0 ffffffff 1d 800] ------- [29:255 -1:255 32 0] 
r 0.443760038 _5_ RTR  --- 10 message 32 [0 ffffffff 1d 800] ------- [29:255 -1:255 32 0] 
r 0.443760284 _35_ RTR  --- 10 message 32 [0 ffffffff 1d 800] ------- [29:255 -1:255 32 0] 
r 0.443760316 _10_ RTR  --- 10 message 32 [0 ffffffff 1d 800] ------- [29:255 -1:255 32 0] 
r 0.443760366 _7_ RTR  --- 10 message 32 [0 ffffffff 1d 800] ------- [29:255 -1:255 32 0] 
s 0.477041254 _8_ RTR  --- 11 message 32 [0 0 0 0] ------- [8:255 -1:255 32 0] 
s 0.477416254 _8_ MAC  --- 11 message 90 [0 ffffffff 8 800] ------- [8:255 -1:255 32 0] 
r 0.478136540 _15_ MAC  --- 11 message 32 [0 ffffffff 8 800] ------- [8:255 -1:255 32 0] 
r 0.478136666 _14_ MAC  --- 11 message 32 [0 ffffffff 8 800] ------- [8:255 -1:255 32 0] 
r 0.478136849 _33_ MAC  --- 11 message 32 [0 ffffffff 8 800] ------- [8:255 -1:255 32 0] 
r 0.478136859 _20_ MAC  --- 11 message 32 [0 ffffffff 8 800] ------- [8:255 -1:255 32 0] 
r 0.478136875 _38_ MAC  --- 11 message 32 [0 ffffffff 8 800] ------- [8:255 -1:255 32 0] 
r 0.478136881 _31_ MAC  --- 11 message 32 [0 ffffffff 8 800] ------- [8:255 -1:255 32 0] 
r 0.478136891 _21_ MAC  --- 11 message 32 [0 ffffffff 8 800] ------- [8:255 -1:255 32 0] 
r 0.478137229 _26_ MAC  --- 11 message 32 [0 ffffffff 8 800] ------- [8:255 -1:255 32 0] 
r 0.478137556 _6_ MAC  --- 11 message 32 [0 ffffffff 8 800] ------- [8:255 -1:255 32 0] 
r 0.478161540 _15_ RTR  --- 11 message 32 [0 ffffffff 8 800] ------- [8:255 -1:255 32 0] 
r 0.478161666 _14_ RTR  --- 11 message 32 [0 ffffffff 8 800] ------- [8:255 -1:255 32 0] 
r 0.478161849 _33_ RTR  --- 11 message 32 [0 ffffffff 8 800] ------- [8:255 -1:255 32 0] 
r 0.478161859 _20_ RTR  --- 11 message 32 [0 ffffffff 8 800] ------- [8:255 -1:255 32 0] 
r 0.478161875 _38_ RTR  --- 11 message 32 [0 ffffffff 8 800] ------- [8:255 -1:255 32 0] 
r 0.478161881 _31_ RTR  --- 11 message 32 [0 ffffffff 8 800] ------- [8:255 -1:255 32 0] 
r 0.478161891 _21_ RTR  --- 11 message 32 [0 ffffffff 8 800] ------- [8:255 -1:255 32 0] 
r 0.478162229 _26_ RTR  --- 11 message 32 [0 ffffffff 8 800] ------- [8:255 -1:255 32 0] 
r 0.478162556 _6_ RTR  --- 11 message 32 [0 ffffffff 8 800] ------- [8:255 -1:255 32 0] 
s 0.487912486 _30_ RTR  --- 12 message 32 [0 0 0 0] ------- [30:255 -1:255 32 0] 
s 0.488567486 _30_ MAC  --- 12 message 90 [0 ffffffff 1e 800] ------- [30:255 -1:255 32 0] 
r 0.489287871 _24_ MAC  --- 12 message 32 [0 ffffffff 1e 800] ------- [30:255 -1:255 32 0] 
r 0.489287929 _25_ MAC  --- 12 message 32 [0 ffffffff 1e 800] ------- [30:255 -1:255 32 0] 
r 0.489288034 _27_ MAC  --- 12 message 32 [0 ffffffff 1e 800] ------- [30:255 -1:255 32 0] 
r 0.489288271 _4_ MAC  --- 12 message 32 [0 ffffffff 1e 800] ------- [30:255 -1:255 32 0] 
r 0.489288357 _22_ MAC  --- 12 message 32 [0 ffffffff 1e 800] ------- [30:255 -1:255 32 0] 
r 0.489288404 _3_ MAC  --- 12 message 32 [0 ffffffff 1e 800] ------- [30:255 -1:255 32 0] 
r 0.489288653 _13_ MAC  --- 12 message 32 [0 ffffffff 1e 800] ------- [30:255 -1:255 32 0] 
r 0.489312871 _24_ RTR  --- 12 message 32 [0 ffffffff 1e 800] ------- [30:255 -1:255 32 0] 
r 0.489312929 _25_ RTR  --- 12 message 32 [0 ffffffff 1e 800] ------- [30:255 -1:255 32 0] 
r 0.489313034 _27_ RTR  --- 12 message 32 [0 ffffffff 1e 800] ------- [30:255 -1:255 32 0] 
r 0.489313271 _4_ RTR  --- 12 message 32 [0 ffffffff 1e 800] ------- [30:255 -1:255 32 0] 
r 0.489313357 _22_ RTR  --- 12 message 32 [0 ffffffff 1e 800] ------- [30:255 -1:255 32 0] 
r 0.489313404 _3_ RTR  --- 12 message 32 [0 ffffffff 1e 800] ------- [30:255 -1:255 32 0] 
r 0.489313653 _13_ RTR  --- 12 message 32 [0 ffffffff 1e 800] ------- [30:255 -1:255 32 0] 
s 0.519498042 _22_ RTR  --- 13 message 32 [0 0 0 0] ------- [22:255 -1:255 32 0] 
s 0.520013042 _22_ MAC  --- 13 message 90 [0 ffffffff 16 800] ------- [22:255 -1:255 32 0] 
r 0.520733453 _3_ MAC  --- 13 message 32 [0 ffffffff 16 800] ------- [22:255 -1:255 32 0] 
r 0.520733475 _25_ MAC  --- 13 message 32 [0 ffffffff 16 800] ------- [22:255 -1:255 32 0] 
r 0.520733599 _24_ MAC  --- 13 message 32 [0 ffffffff 16 800] ------- [22:255 -1:255 32 0] 
r 0.520733913 _30_ MAC  --- 13 message 32 [0 ffffffff 16 800] ------- [22:255 -1:255 32 0] 
r 0.520734124 _27_ MAC  --- 13 message 32 [0 ffffffff 16 800] ------- [22:255 -1:255 32 0] 
r 0.520734129 _4_ MAC  --- 13 message 32 [0 ffffffff 16 800] ------- [22:255 -1:255 32 0] 
r 0.520734136 _1_ MAC  --- 13 message 32 [0 ffffffff 16 800] ------- [22:255 -1:255 32 0] 
r 0.520734192 _28_ MAC  --- 13 message 32 [0 ffffffff 16 800] ------- [22:255 -1:255 32 0] 
r 0.520734266 _26_ MAC  --- 13 message 32 [0 ffffffff 16 800] ------- [22:255 -1:255 32 0] 
r 0.520758453 _3_ RTR  --- 13 message 32 [0 ffffffff 16 800] ------- [22:255 -1:255 32 0] 
r 0.520758475 _25_ RTR  --- 13 message 32 [0 ffffffff 16 800] ------- [22:255 -1:255 32 0] 
r 0.520758599 _24_ RTR  --- 13 message 32 [0 ffffffff 16 800] ------- [22:255 -1:255 32 0] 
r 0.520758913 _30_ RTR  --- 13 message 32 [0 ffffffff 16 800] ------- [22:255 -1:255 32 0] 
r 0.520759124 _27_ RTR  --- 13 message 32 [0 ffffffff 16 800] ------- [22:255 -1:255 32 0] 
r 0.520759129 _4_ RTR  --- 13 message 32 [0 ffffffff 16 800] ------- [22:255 -1:255 32 0] 
r 0.520759136 _1_ RTR  --- 13 message 32 [0 ffffffff 16 800] ------- [22:255 -1:255 32 0] 
r 0.520759192 _28_ RTR  --- 13 message 32 [0 ffffffff 16 800] ------- [22:255 -1:255 32 0] 
r 0.520759266 _26_ RTR  --- 13 message 32 [0 ffffffff 16 800] ------- [22:255 -1:255 32 0] 
s 0.556838879 _38_ AGT  --- 14 cbr 512 [0 0 0 0] ------- [38:0 39:0 32 0] [0] 0 0
r 0.556838879 _38_ RTR  --- 14 cbr 512 [0 0 0 0] ------- [38:0 39:0 32 0] [0] 0 0
s 0.621208005 _10_ RTR  --- 15 message 32 [0 0 0 0] ------- [10:255 -1:255 32 0] 
s 0.621283005 _10_ MAC  --- 15 message 90 [0 ffffffff a 800] ------- [10:255 -1:255 32 0] 
r 0.622003653 _35_ MAC  --- 15 message 32 [0 ffffffff a 800] ------- [10:255 -1:255 32 0] 
r 0.622003884 _0_ MAC  --- 15 message 32 [0 ffffffff a 800] ------- [10:255 -1:255 32 0] 
r 0.622004121 _7_ MAC  --- 15 message 32 [0 ffffffff a 800] ------- [10:255 -1:255 32 0] 
r 0.622004266 _18_ MAC  --- 15 message 32 [0 ffffffff a 800] ------- [10:255 -1:255 32 0] 
r 0.622004284 _29_ MAC  --- 15 message 32 [0 ffffffff a 800] ------- [10:255 -1:255 32 0] 
r 0.622028653 _35_ RTR  --- 15 message 32 [0 ffffffff a 800] ------- [10:255 -1:255 32 0] 
r 0.622028884 _0_ RTR  --- 15 message 32 [0 ffffffff a 800] ------- [10:255 -1:255 32 0] 
r 0.622029121 _7_ RTR  --- 15 message 32 [0 ffffffff a 800] ------- [10:255 -1:255 32 0] 
r 0.622029266 _18_ RTR  --- 15 message 32 [0 ffffffff a 800] ------- [10:255 -1:255 32 0] 
r 0.622029284 _29_ RTR  --- 15 message 32 [0 ffffffff a 800] ------- [10:255 -1:255 32 0] 
s 0.634723500 _6_ RTR  --- 16 message 32 [0 0 0 0] ------- [6:255 -1:255 32 0] 
s 0.635218500 _6_ MAC  --- 16 message 90 [0 ffffffff 6 800] ------- [6:255 -1:255 32 0] 
r 0.635939105 _32_ MAC  --- 16 message 32 [0 ffffffff 6 800] ------- [6:255 -1:255 32 0] 
r 0.635939207 _33_ MAC  --- 16 message 32 [0 ffffffff 6 800] ------- [6:255 -1:255 32 0] 
r 0.635939226 _31_ MAC  --- 16 message 32 [0 ffffffff 6 800] ------- [6:255 -1:255 32 0] 
r 0.635939243 _21_ MAC  --- 16 message 32 [0 ffffffff 6 800] ------- [6:255 -1:255 32 0] 
r 0.635939568 _2_ MAC  --- 16 message 32 [0 ffffffff 6 800] ------- [6:255 -1:255 32 0] 
r 0.635939599 _17_ MAC  --- 16 message 32 [0 ffffffff 6 800] ------- [6:255 -1:255 32 0] 
r 0.635939667 _15_ MAC  --- 16 message 32 [0 ffffffff 6 800] ------- [6:255 -1:255 32 0] 
r 0.635939802 _8_ MAC  --- 16 message 32 [0 ffffffff 6 800] ------- [6:255 -1:255 32 0] 
r 0.635964105 _32_ RTR  --- 16 message 32 [0 ffffffff 6 800] ------- [6:255 -1:255 32 0] 
r 0.635964207 _33_ RTR  --- 16 message 32 [0 ffffffff 6 800] ------- [6:255 -1:255 32 0] 
r 0.635964226 _31_ RTR  --- 16 message 32 [0 ffffffff 6 800] ------- [6:255 -1:255 32 0] 
r 0.635964243 _21_ RTR  --- 16 message 32 [0 ffffffff 6 800] ------- [6:255 -1:255 32 0] 
r 0.635964568 _2_ RTR  --- 16 message 32 [0 ffffffff 6 800] ------- [6:255 -1:255 32 0] 
r 0.635964599 _17_ RTR  --- 16 message 32 [0 ffffffff 6 800] ------- [6:255 -1:255 32 0] 
r 0.635964667 _15_ RTR  --- 16 message 32 [0 ffffffff 6 800] ------- [6:255 -1:255 32 0] 
r 0.635964802 _8_ RTR  --- 16 message 32 [0 ffffffff 6 800] ------- [6:255 -1:255 32 0] 
s 0.705034406 _21_ RTR  --- 17 message 32 [0 0 0 0] ------- [21:255 -1:255 32 0] 
s 0.705129406 _21_ MAC  --- 17 message 90 [0 ffffffff 15 800] ------- [21:255 -1:255 32 0] 
r 0.705849450 _31_ MAC  --- 17 message 32 [0 ffffffff 15 800] ------- [21:255 -1:255 32 0] 
r 0.705849618 _33_ MAC  --- 17 message 32 [0 ffffffff 15 800] ------- [21:255 -1:255 32 0] 
r 0.705849841 _15_ MAC  --- 17 message 32 [0 ffffffff 15 800] ------- [21:255 -1:255 32 0] 
r 0.705850043 _8_ MAC  --- 17 message 32 [0 ffffffff 15 800] ------- [21:255 -1:255 32 0] 
r 0.705850149 _6_ MAC  --- 17 message 32 [0 ffffffff 15 800] ------- [21:255 -1:255 32 0] 
r 0.705850435 _14_ MAC  --- 17 message 32 [0 ffffffff 15 800] ------- [21:255 -1:255 32 0] 
r 0.705850609 _17_ MAC  --- 17 message 32 [0 ffffffff 15 800] ------- [21:255 -1:255 32 0] 
r 0.705850617 _38_ MAC  --- 17 message 32 [0 ffffffff 15 800] ------- [21:255 -1:255 32 0] 
r 0.705850646 _20_ MAC  --- 17 message 32 [0 ffffffff 15 800] ------- [21:255 -1:255 32 0] 
r 0.705850672 _32_ MAC  --- 17 message 32 [0 ffffffff 15 800] ------- [21:255 -1:255 32 0] 
r 0.705874450 _31_ RTR  --- 17 message 32 [0 ffffffff 15 800] ------- [21:255 -1:255 32 0] 
r 0.705874618 _33_ RTR  --- 17 message 32 [0 ffffffff 15 800] ------- [21:255 -1:255 32 0] 
r 0.705874841 _15_ RTR  --- 17 message 32 [0 ffffffff 15 800] ------- [21:255 -1:255 32 0] 
r 0.705875043 _8_ RTR  --- 17 message 32 [0 ffffffff 15 800] ------- [21:255 -1:255 32 0] 
r 0.705875149 _6_ RTR  --- 17 message 32 [0 ffffffff 15 800] ------- [21:255 -1:255 32 0] 
r 0.705875435 _14_ RTR  --- 17 message 32 [0 ffffffff 15 800] ------- [21:255 -1:255 32 0] 
r 0.705875609 _17_ RTR  --- 17 message 32 [0 ffffffff 15 800] ------- [21:255 -1:255 32 0] 
r 0.705875617 _38_ RTR  --- 17 message 32 [0 ffffffff 15 800] ------- [21:255 -1:255 32 0] 
r 0.705875646 _20_ RTR  --- 17 message 32 [0 ffffffff 15 800] ------- [21:255 -1:255 32 0] 
r 0.705875672 _32_ RTR  --- 17 message 32 [0 ffffffff 15 800] ------- [21:255 -1:255 32 0] 
s 0.811198126 _35_ RTR  --- 19 message 32 [0 0 0 0] ------- [35:255 -1:255 32 0] 
s 0.811873126 _35_ MAC  --- 19 message 90 [0 ffffffff 23 800] ------- [35:255 -1:255 32 0] 
r 0.812593773 _10_ MAC  --- 19 message 32 [0 ffffffff 23 800] ------- [35:255 -1:255 32 0] 