M 0.00000 0 (425.51, 1.65, 0.00), (425.51, 1.65), 15.00
s 0.003091411 _0_ RTR  --- 0 message 32 [0 0 0 0] ------- [0:255 -1:255 32 0] 
r 0.004211434 _10_ RTR  --- 0 message 32 [0 ffffffff 0 800] ------- [0:255 -1:255 32 0] 
r 0.004211670 _24_ RTR  --- 0 message 32 [0 ffffffff 0 800] ------- [0:255 -1:255 32 0] 
r 0.004211704 _23_ RTR  --- 0 message 32 [0 ffffffff 0 800] ------- [0:255 -1:255 32 0] 
r 0.004211704 _8_ RTR  --- 0 message 32 [0 ffffffff 0 800] ------- [0:255 -1:255 32 0] 
r 0.004211777 _7_ RTR  --- 0 message 32 [0 ffffffff 0 800] ------- [0:255 -1:255 32 0] 
r 0.004211862 _1_ RTR  --- 0 message 32 [0 ffffffff 0 800] ------- [0:255 -1:255 32 0] 
r 0.004211863 _19_ RTR  --- 0 message 32 [0 ffffffff 0 800] ------- [0:255 -1:255 32 0] 
r 0.004212006 _20_ RTR  --- 0 message 32 [0 ffffffff 0 800] ------- [0:255 -1:255 32 0] 
r 0.004212013 _15_ RTR  --- 0 message 32 [0 ffffffff 0 800] ------- [0:255 -1:255 32 0] 
r 0.004212070 _28_ RTR  --- 0 message 32 [0 ffffffff 0 800] ------- [0:255 -1:255 32 0] 
r 0.004212086 _9_ RTR  --- 0 message 32 [0 ffffffff 0 800] ------- [0:255 -1:255 32 0] 
r 0.004212106 _26_ RTR  --- 0 message 32 [0 ffffffff 0 800] ------- [0:255 -1:255 32 0] 
r 0.004212114 _12_ RTR  --- 0 message 32 [0 ffffffff 0 800] ------- [0:255 -1:255 32 0] 
r 0.004212129 _3_ RTR  --- 0 message 32 [0 ffffffff 0 800] ------- [0:255 -1:255 32 0] 
r 0.004212146 _16_ RTR  --- 0 message 32 [0 ffffffff 0 800] ------- [0:255 -1:255 32 0] 
r 0.004212156 _29_ RTR  --- 0 message 32 [0 ffffffff 0 800] ------- [0:255 -1:255 32 0] 
r 0.004212197 _27_ RTR  --- 0 message 32 [0 ffffffff 0 800] ------- [0:255 -1:255 32 0] 
r 0.004212208 _5_ RTR  --- 0 message 32 [0 ffffffff 0 800] ------- [0:255 -1:255 32 0] 
r 0.004212221 _17_ RTR  --- 0 message 32 [0 ffffffff 0 800] ------- [0:255 -1:255 32 0] 
r 0.004212241 _18_ RTR  --- 0 message 32 [0 ffffffff 0 800] ------- [0:255 -1:255 32 0] 
s 0.037458776 _2_ RTR  --- 1 message 32 [0 0 0 0] ------- [2:255 -1:255 32 0] 
r 0.038558848 _18_ RTR  --- 1 message 32 [0 ffffffff 2 800] ------- [2:255 -1:255 32 0] 
r 0.038558966 _21_ RTR  --- 1 message 32 [0 ffffffff 2 800] ------- [2:255 -1:255 32 0] 
r 0.038559031 _9_ RTR  --- 1 message 32 [0 ffffffff 2 800] ------- [2:255 -1:255 32 0] 
r 0.038559094 _6_ RTR  --- 1 message 32 [0 ffffffff 2 800] ------- [2:255 -1:255 32 0] 
r 0.038559193 _5_ RTR  --- 1 message 32 [0 ffffffff 2 800] ------- [2:255 -1:255 32 0] 
r 0.038559195 _25_ RTR  --- 1 message 32 [0 ffffffff 2 800] ------- [2:255 -1:255 32 0] 
r 0.038559197 _16_ RTR  --- 1 message 32 [0 ffffffff 2 800] ------- [2:255 -1:255 32 0] 
r 0.038559223 _13_ RTR  --- 1 message 32 [0 ffffffff 2 800] ------- [2:255 -1:255 32 0] 
r 0.038559378 _11_ RTR  --- 1 message 32 [0 ffffffff 2 800] ------- [2:255 -1:255 32 0] 
r 0.038559395 _19_ RTR  --- 1 message 32 [0 ffffffff 2 800] ------- [2:255 -1:255 32 0] 
r 0.038559419 _4_ RTR  --- 1 message 32 [0 ffffffff 2 800] ------- [2:255 -1:255 32 0] 
r 0.038559428 _23_ RTR  --- 1 message 32 [0 ffffffff 2 800] ------- [2:255 -1:255 32 0] 
r 0.038559455 _24_ RTR  --- 1 message 32 [0 ffffffff 2 800] ------- [2:255 -1:255 32 0] 
r 0.038559492 _1_ RTR  --- 1 message 32 [0 ffffffff 2 800] ------- [2:255 -1:255 32 0] 
r 0.038559551 _3_ RTR  --- 1 message 32 [0 ffffffff 2 800] ------- [2:255 -1:255 32 0] 
r 0.038559551 _29_ RTR  --- 1 message 32 [0 ffffffff 2 800] ------- [2:255 -1:255 32 0] 
s 0.087462768 _13_ RTR  --- 2 message 32 [0 0 0 0] ------- [13:255 -1:255 32 0] 
r 0.088502882 _25_ RTR  --- 2 message 32 [0 ffffffff d 800] ------- [13:255 -1:255 32 0] 
r 0.088502928 _5_ RTR  --- 2 message 32 [0 ffffffff d 800] ------- [13:255 -1:255 32 0] 
r 0.088502990 _16_ RTR  --- 2 message 32 [0 ffffffff d 800] ------- [13:255 -1:255 32 0] 
r 0.088503185 _21_ RTR  --- 2 message 32 [0 ffffffff d 800] ------- [13:255 -1:255 32 0] 
r 0.088503189 _18_ RTR  --- 2 message 32 [0 ffffffff d 800] ------- [13:255 -1:255 32 0] 
r 0.088503213 _6_ RTR  --- 2 message 32 [0 ffffffff d 800] ------- [13:255 -1:255 32 0] 
r 0.088503215 _2_ RTR  --- 2 message 32 [0 ffffffff d 800] ------- [13:255 -1:255 32 0] 
r 0.088503349 _9_ RTR  --- 2 message 32 [0 ffffffff d 800] ------- [13:255 -1:255 32 0] 
r 0.088503432 _23_ RTR  --- 2 message 32 [0 ffffffff d 800] ------- [13:255 -1:255 32 0] 
r 0.088503466 _24_ RTR  --- 2 message 32 [0 ffffffff d 800] ------- [13:255 -1:255 32 0] 
r 0.088503518 _4_ RTR  --- 2 message 32 [0 ffffffff d 800] ------- [13:255 -1:255 32 0] 
s 0.177365656 _3_ RTR  --- 3 message 32 [0 0 0 0] ------- [3:255 -1:255 32 0] 
r 0.178305684 _29_ RTR  --- 3 message 32 [0 ffffffff 3 800] ------- [3:255 -1:255 32 0] 
r 0.178305925 _1_ RTR  --- 3 message 32 [0 ffffffff 3 800] ------- [3:255 -1:255 32 0] 
r 0.178305968 _19_ RTR  --- 3 message 32 [0 ffffffff 3 800] ------- [3:255 -1:255 32 0] 
r 0.178306210 _9_ RTR  --- 3 message 32 [0 ffffffff 3 800] ------- [3:255 -1:255 32 0] 
r 0.178306241 _20_ RTR  --- 3 message 32 [0 ffffffff 3 800] ------- [3:255 -1:255 32 0] 
r 0.178306358 _26_ RTR  --- 3 message 32 [0 ffffffff 3 800] ------- [3:255 -1:255 32 0] 
r 0.178306372 _10_ RTR  --- 3 message 32 [0 ffffffff 3 800] ------- [3:255 -1:255 32 0] 
r 0.178306374 _0_ RTR  --- 3 message 32 [0 ffffffff 3 800] ------- [3:255 -1:255 32 0] 
r 0.178306392 _24_ RTR  --- 3 message 32 [0 ffffffff 3 800] ------- [3:255 -1:255 32 0] 
r 0.178306399 _12_ RTR  --- 3 message 32 [0 ffffffff 3 800] ------- [3:255 -1:255 32 0] 
r 0.178306401 _23_ RTR  --- 3 message 32 [0 ffffffff 3 800] ------- [3:255 -1:255 32 0] 
r 0.178306409 _18_ RTR  --- 3 message 32 [0 ffffffff 3 800] ------- [3:255 -1:255 32 0] 
r 0.178306420 _28_ RTR  --- 3 message 32 [0 ffffffff 3 800] ------- [3:255 -1:255 32 0] 
r 0.178306431 _2_ RTR  --- 3 message 32 [0 ffffffff 3 800] ------- [3:255 -1:255 32 0] 
r 0.178306461 _8_ RTR  --- 3 message 32 [0 ffffffff 3 800] ------- [3:255 -1:255 32 0] 
r 0.178306469 _27_ RTR  --- 3 message 32 [0 ffffffff 3 800] ------- [3:255 -1:255 32 0] 
s 0.191634337 _19_ RTR  --- 4 message 32 [0 0 0 0] ------- [19:255 -1:255 32 0] 
r 0.192634438 _1_ RTR  --- 4 message 32 [0 ffffffff 13 800] ------- [19:255 -1:255 32 0] 
r 0.192634649 _3_ RTR  --- 4 message 32 [0 ffffffff 13 800] ------- [19:255 -1:255 32 0] 
r 0.192634671 _29_ RTR  --- 4 message 32 [0 ffffffff 13 800] ------- [19:255 -1:255 32 0] 
r 0.192634701 _9_ RTR  --- 4 message 32 [0 ffffffff 13 800] ------- [19:255 -1:255 32 0] 
r 0.192634761 _24_ RTR  --- 4 message 32 [0 ffffffff 13 800] ------- [19:255 -1:255 32 0] 
r 0.192634769 _23_ RTR  --- 4 message 32 [0 ffffffff 13 800] ------- [19:255 -1:255 32 0] 
r 0.192634781 _10_ RTR  --- 4 message 32 [0 ffffffff 13 800] ------- [19:255 -1:255 32 0] 
r 0.192634789 _0_ RTR  --- 4 message 32 [0 ffffffff 13 800] ------- [19:255 -1:255 32 0] 
r 0.192634909 _18_ RTR  --- 4 message 32 [0 ffffffff 13 800] ------- [19:255 -1:255 32 0] 
r 0.192634938 _20_ RTR  --- 4 message 32 [0 ffffffff 13 800] ------- [19:255 -1:255 32 0] 
r 0.192634955 _2_ RTR  --- 4 message 32 [0 ffffffff 13 800] ------- [19:255 -1:255 32 0] 
r 0.192634965 _8_ RTR  --- 4 message 32 [0 ffffffff 13 800] ------- [19:255 -1:255 32 0] 
r 0.192635021 _7_ RTR  --- 4 message 32 [0 ffffffff 13 800] ------- [19:255 -1:255 32 0] 
r 0.192635034 _16_ RTR  --- 4 message 32 [0 ffffffff 13 800] ------- [19:255 -1:255 32 0] 
r 0.192635070 _26_ RTR  --- 4 message 32 [0 ffffffff 13 800] ------- [19:255 -1:255 32 0] 
r 0.192635084 _5_ RTR  --- 4 message 32 [0 ffffffff 13 800] ------- [19:255 -1:255 32 0] 
r 0.192635096 _28_ RTR  --- 4 message 32 [0 ffffffff 13 800] ------- [19:255 -1:255 32 0] 
r 0.192635101 _12_ RTR  --- 4 message 32 [0 ffffffff 13 800] ------- [19:255 -1:255 32 0] 
r 0.192635123 _25_ RTR  --- 4 message 32 [0 ffffffff 13 800] ------- [19:255 -1:255 32 0] 
r 0.192635127 _15_ RTR  --- 4 message 32 [0 ffffffff 13 800] ------- [19:255 -1:255 32 0] 
r 0.192635145 _21_ RTR  --- 4 message 32 [0 ffffffff 13 800] ------- [19:255 -1:255 32 0] 
s 0.234603229 _15_ RTR  --- 5 message 32 [0 0 0 0] ------- [15:255 -1:255 32 0] 
r 0.235643375 _28_ RTR  --- 5 message 32 [0 ffffffff f 800] ------- [15:255 -1:255 32 0] 
r 0.235643442 _12_ RTR  --- 5 message 32 [0 ffffffff f 800] ------- [15:255 -1:255 32 0] 
r 0.235643472 _26_ RTR  --- 5 message 32 [0 ffffffff f 800] ------- [15:255 -1:255 32 0] 
r 0.235643480 _27_ RTR  --- 5 message 32 [0 ffffffff f 800] ------- [15:255 -1:255 32 0] 
r 0.235643503 _7_ RTR  --- 5 message 32 [0 ffffffff f 800] ------- [15:255 -1:255 32 0] 
r 0.235643515 _20_ RTR  --- 5 message 32 [0 ffffffff f 800] ------- [15:255 -1:255 32 0] 
r 0.235643522 _17_ RTR  --- 5 message 32 [0 ffffffff f 800] ------- [15:255 -1:255 32 0] 
r 0.235643561 _8_ RTR  --- 5 message 32 [0 ffffffff f 800] ------- [15:255 -1:255 32 0] 
r 0.235643656 _14_ RTR  --- 5 message 32 [0 ffffffff f 800] ------- [15:255 -1:255 32 0] 
r 0.235643831 _0_ RTR  --- 5 message 32 [0 ffffffff f 800] ------- [15:255 -1:255 32 0] 
r 0.235643854 _10_ RTR  --- 5 message 32 [0 ffffffff f 800] ------- [15:255 -1:255 32 0] 
r 0.235643938 _1_ RTR  --- 5 message 32 [0 ffffffff f 800] ------- [15:255 -1:255 32 0] 
r 0.235644000 _22_ RTR  --- 5 message 32 [0 ffffffff f 800] ------- [15:255 -1:255 32 0] 
r 0.235644020 _19_ RTR  --- 5 message 32 [0 ffffffff f 800] ------- [15:255 -1:255 32 0] 
s 0.333839210 _12_ RTR  --- 6 message 32 [0 0 0 0] ------- [12:255 -1:255 32 0] 
r 0.334739253 _26_ RTR  --- 6 message 32 [0 ffffffff c 800] ------- [12:255 -1:255 32 0] 
r 0.334739277 _28_ RTR  --- 6 message 32 [0 ffffffff c 800] ------- [12:255 -1:255 32 0] 
r 0.334739298 _27_ RTR  --- 6 message 32 [0 ffffffff c 800] ------- [12:255 -1:255 32 0] 
r 0.334739375 _20_ RTR  --- 6 message 32 [0 ffffffff c 800] ------- [12:255 -1:255 32 0] 
r 0.334739422 _15_ RTR  --- 6 message 32 [0 ffffffff c 800] ------- [12:255 -1:255 32 0] 
r 0.334739552 _14_ RTR  --- 6 message 32 [0 ffffffff c 800] ------- [12:255 -1:255 32 0] 
r 0.334739655 _7_ RTR  --- 6 message 32 [0 ffffffff c 800] ------- [12:255 -1:255 32 0] 
r 0.334739656 _17_ RTR  --- 6 message 32 [0 ffffffff c 800] ------- [12:255 -1:255 32 0] 
r 0.334739695 _8_ RTR  --- 6 message 32 [0 ffffffff c 800] ------- [12:255 -1:255 32 0] 
r 0.334739879 _1_ RTR  --- 6 message 32 [0 ffffffff c 800] ------- [12:255 -1:255 32 0] 
r 0.334739889 _22_ RTR  --- 6 message 32 [0 ffffffff c 800] ------- [12:255 -1:255 32 0] 
r 0.334739913 _0_ RTR  --- 6 message 32 [0 ffffffff c 800] ------- [12:255 -1:255 32 0] 
r 0.334739933 _10_ RTR  --- 6 message 32 [0 ffffffff c 800] ------- [12:255 -1:255 32 0] 
r 0.334739953 _3_ RTR  --- 6 message 32 [0 ffffffff c 800] ------- [12:255 -1:255 32 0] 
r 0.334739974 _29_ RTR  --- 6 message 32 [0 ffffffff c 800] ------- [12:255 -1:255 32 0] 
r 0.334739974 _19_ RTR  --- 6 message 32 [0 ffffffff c 800] ------- [12:255 -1:255 32 0] 
s 0.351472650 _18_ RTR  --- 7 message 32 [0 0 0 0] ------- [18:255 -1:255 32 0] 
r 0.352592722 _2_ RTR  --- 7 message 32 [0 ffffffff 12 800] ------- [18:255 -1:255 32 0] 
r 0.352592860 _9_ RTR  --- 7 message 32 [0 ffffffff 12 800] ------- [18:255 -1:255 32 0] 
r 0.352592895 _21_ RTR  --- 7 message 32 [0 ffffffff 12 800] ------- [18:255 -1:255 32 0] 
r 0.352593015 _16_ RTR  --- 7 message 32 [0 ffffffff 12 800] ------- [18:255 -1:255 32 0] 
r 0.352593018 _5_ RTR  --- 7 message 32 [0 ffffffff 12 800] ------- [18:255 -1:255 32 0] 
r 0.352593021 _6_ RTR  --- 7 message 32 [0 ffffffff 12 800] ------- [18:255 -1:255 32 0] 
r 0.352593027 _25_ RTR  --- 7 message 32 [0 ffffffff 12 800] ------- [18:255 -1:255 32 0] 
r 0.352593071 _13_ RTR  --- 7 message 32 [0 ffffffff 12 800] ------- [18:255 -1:255 32 0] 
r 0.352593222 _19_ RTR  --- 7 message 32 [0 ffffffff 12 800] ------- [18:255 -1:255 32 0] 
r 0.352593231 _23_ RTR  --- 7 message 32 [0 ffffffff 12 800] ------- [18:255 -1:255 32 0] 
r 0.352593258 _24_ RTR  --- 7 message 32 [0 ffffffff 12 800] ------- [18:255 -1:255 32 0] 
r 0.352593322 _1_ RTR  --- 7 message 32 [0 ffffffff 12 800] ------- [18:255 -1:255 32 0] 
r 0.352593324 _11_ RTR  --- 7 message 32 [0 ffffffff 12 800] ------- [18:255 -1:255 32 0] 
r 0.352593356 _4_ RTR  --- 7 message 32 [0 ffffffff 12 800] ------- [18:255 -1:255 32 0] 
r 0.352593403 _3_ RTR  --- 7 message 32 [0 ffffffff 12 800] ------- [18:255 -1:255 32 0] 
r 0.352593406 _29_ RTR  --- 7 message 32 [0 ffffffff 12 800] ------- [18:255 -1:255 32 0] 
r 0.352593460 _10_ RTR  --- 7 message 32 [0 ffffffff 12 800] ------- [18:255 -1:255 32 0] 
r 0.352593481 _0_ RTR  --- 7 message 32 [0 ffffffff 12 800] ------- [18:255 -1:255 32 0] 
s 0.436386259 _29_ RTR  --- 8 message 32 [0 0 0 0] ------- [29:255 -1:255 32 0] 
r 0.437446287 _3_ RTR  --- 8 message 32 [0 ffffffff 1d 800] ------- [29:255 -1:255 32 0] 
r 0.437446555 _1_ RTR  --- 8 message 32 [0 ffffffff 1d 800] ------- [29:255 -1:255 32 0] 
r 0.437446593 _19_ RTR  --- 8 message 32 [0 ffffffff 1d 800] ------- [29:255 -1:255 32 0] 
r 0.437446819 _9_ RTR  --- 8 message 32 [0 ffffffff 1d 800] ------- [29:255 -1:255 32 0] 
r 0.437446867 _20_ RTR  --- 8 message 32 [0 ffffffff 1d 800] ------- [29:255 -1:255 32 0] 
r 0.437446982 _26_ RTR  --- 8 message 32 [0 ffffffff 1d 800] ------- [29:255 -1:255 32 0] 
r 0.437447002 _10_ RTR  --- 8 message 32 [0 ffffffff 1d 800] ------- [29:255 -1:255 32 0] 
r 0.437447004 _0_ RTR  --- 8 message 32 [0 ffffffff 1d 800] ------- [29:255 -1:255 32 0] 
r 0.437447015 _18_ RTR  --- 8 message 32 [0 ffffffff 1d 800] ------- [29:255 -1:255 32 0] 
r 0.437447018 _24_ RTR  --- 8 message 32 [0 ffffffff 1d 800] ------- [29:255 -1:255 32 0] 
r 0.437447023 _12_ RTR  --- 8 message 32 [0 ffffffff 1d 800] ------- [29:255 -1:255 32 0] 
r 0.437447026 _23_ RTR  --- 8 message 32 [0 ffffffff 1d 800] ------- [29:255 -1:255 32 0] 
r 0.437447034 _2_ RTR  --- 8 message 32 [0 ffffffff 1d 800] ------- [29:255 -1:255 32 0] 
r 0.437447047 _28_ RTR  --- 8 message 32 [0 ffffffff 1d 800] ------- [29:255 -1:255 32 0] 
s 0.470117073 _8_ RTR  --- 9 message 32 [0 0 0 0] ------- [8:255 -1:255 32 0] 
r 0.471397145 _7_ RTR  --- 9 message 32 [0 ffffffff 8 800] ------- [8:255 -1:255 32 0] 
r 0.471397367 _0_ RTR  --- 9 message 32 [0 ffffffff 8 800] ------- [8:255 -1:255 32 0] 
r 0.471397390 _10_ RTR  --- 9 message 32 [0 ffffffff 8 800] ------- [8:255 -1:255 32 0] 
r 0.471397405 _15_ RTR  --- 9 message 32 [0 ffffffff 8 800] ------- [8:255 -1:255 32 0] 
r 0.471397500 _28_ RTR  --- 9 message 32 [0 ffffffff 8 800] ------- [8:255 -1:255 32 0] 
r 0.471397510 _20_ RTR  --- 9 message 32 [0 ffffffff 8 800] ------- [8:255 -1:255 32 0] 
r 0.471397558 _12_ RTR  --- 9 message 32 [0 ffffffff 8 800] ------- [8:255 -1:255 32 0] 
r 0.471397566 _26_ RTR  --- 9 message 32 [0 ffffffff 8 800] ------- [8:255 -1:255 32 0] 
r 0.471397590 _17_ RTR  --- 9 message 32 [0 ffffffff 8 800] ------- [8:255 -1:255 32 0] 
r 0.471397626 _24_ RTR  --- 9 message 32 [0 ffffffff 8 800] ------- [8:255 -1:255 32 0] 
r 0.471397629 _27_ RTR  --- 9 message 32 [0 ffffffff 8 800] ------- [8:255 -1:255 32 0] 
r 0.471397653 _1_ RTR  --- 9 message 32 [0 ffffffff 8 800] ------- [8:255 -1:255 32 0] 
r 0.471397660 _23_ RTR  --- 9 message 32 [0 ffffffff 8 800] ------- [8:255 -1:255 32 0] 
r 0.471397701 _19_ RTR  --- 9 message 32 [0 ffffffff 8 800] ------- [8:255 -1:255 32 0] 
r 0.471397831 _14_ RTR  --- 9 message 32 [0 ffffffff 8 800] ------- [8:255 -1:255 32 0] 
r 0.471397878 _3_ RTR  --- 9 message 32 [0 ffffffff 8 800] ------- [8:255 -1:255 32 0] 
s 0.521504883 _22_ RTR  --- 10 message 32 [0 0 0 0] ------- [22:255 -1:255 32 0] 
r 0.522405230 _14_ RTR  --- 10 message 32 [0 ffffffff 16 800] ------- [22:255 -1:255 32 0] 
r 0.522405473 _27_ RTR  --- 10 message 32 [0 ffffffff 16 800] ------- [22:255 -1:255 32 0] 
r 0.522405562 _12_ RTR  --- 10 message 32 [0 ffffffff 16 800] ------- [22:255 -1:255 32 0] 
r 0.522405584 _26_ RTR  --- 10 message 32 [0 ffffffff 16 800] ------- [22:255 -1:255 32 0] 
r 0.522405592 _17_ RTR  --- 10 message 32 [0 ffffffff 16 800] ------- [22:255 -1:255 32 0] 
r 0.522405592 _28_ RTR  --- 10 message 32 [0 ffffffff 16 800] ------- [22:255 -1:255 32 0] 
r 0.522405654 _15_ RTR  --- 10 message 32 [0 ffffffff 16 800] ------- [22:255 -1:255 32 0] 
r 0.522405714 _20_ RTR  --- 10 message 32 [0 ffffffff 16 800] ------- [22:255 -1:255 32 0] 
s 0.626302117 _10_ RTR  --- 11 message 32 [0 0 0 0] ------- [10:255 -1:255 32 0] 
r 0.627242141 _0_ RTR  --- 11 message 32 [0 ffffffff a 800] ------- [10:255 -1:255 32 0] 
r 0.627242353 _24_ RTR  --- 11 message 32 [0 ffffffff a 800] ------- [10:255 -1:255 32 0] 
r 0.627242387 _23_ RTR  --- 11 message 32 [0 ffffffff a 800] ------- [10:255 -1:255 32 0] 
r 0.627242435 _8_ RTR  --- 11 message 32 [0 ffffffff a 800] ------- [10:255 -1:255 32 0] 
r 0.627242507 _7_ RTR  --- 11 message 32 [0 ffffffff a 800] ------- [10:255 -1:255 32 0] 
r 0.627242561 _19_ RTR  --- 11 message 32 [0 ffffffff a 800] ------- [10:255 -1:255 32 0] 
r 0.627242565 _1_ RTR  --- 11 message 32 [0 ffffffff a 800] ------- [10:255 -1:255 32 0] 
r 0.627242729 _20_ RTR  --- 11 message 32 [0 ffffffff a 800] ------- [10:255 -1:255 32 0] 
r 0.627242742 _15_ RTR  --- 11 message 32 [0 ffffffff a 800] ------- [10:255 -1:255 32 0] 
r 0.627242774 _9_ RTR  --- 11 message 32 [0 ffffffff a 800] ------- [10:255 -1:255 32 0] 
r 0.627242797 _28_ RTR  --- 11 message 32 [0 ffffffff a 800] ------- [10:255 -1:255 32 0] 
r 0.627242829 _16_ RTR  --- 11 message 32 [0 ffffffff a 800] ------- [10:255 -1:255 32 0] 
r 0.627242832 _26_ RTR  --- 11 message 32 [0 ffffffff a 800] ------- [10:255 -1:255 32 0] 
r 0.627242833 _3_ RTR  --- 11 message 32 [0 ffffffff a 800] ------- [10:255 -1:255 32 0] 
r 0.627242840 _12_ RTR  --- 11 message 32 [0 ffffffff a 800] ------- [10:255 -1:255 32 0] 
r 0.627242860 _29_ RTR  --- 11 message 32 [0 ffffffff a 800] ------- [10:255 -1:255 32 0] 
r 0.627242891 _5_ RTR  --- 11 message 32 [0 ffffffff a 800] ------- [10:255 -1:255 32 0] 
r 0.627242924 _27_ RTR  --- 11 message 32 [0 ffffffff a 800] ------- [10:255 -1:255 32 0] 
r 0.627242927 _18_ RTR  --- 11 message 32 [0 ffffffff a 800] ------- [10:255 -1:255 32 0] 
r 0.627242937 _25_ RTR  --- 11 message 32 [0 ffffffff a 800] ------- [10:255 -1:255 32 0] 
s 0.633203961 _6_ RTR  --- 12 message 32 [0 0 0 0] ------- [6:255 -1:255 32 0] 
r 0.634604089 _21_ RTR  --- 12 message 32 [0 ffffffff 6 800] ------- [6:255 -1:255 32 0] 
r 0.634604279 _2_ RTR  --- 12 message 32 [0 ffffffff 6 800] ------- [6:255 -1:255 32 0] 
r 0.634604310 _4_ RTR  --- 12 message 32 [0 ffffffff 6 800] ------- [6:255 -1:255 32 0] 
r 0.634604332 _18_ RTR  --- 12 message 32 [0 ffffffff 6 800] ------- [6:255 -1:255 32 0] 
r 0.634604394 _11_ RTR  --- 12 message 32 [0 ffffffff 6 800] ------- [6:255 -1:255 32 0] 
r 0.634604406 _13_ RTR  --- 12 message 32 [0 ffffffff 6 800] ------- [6:255 -1:255 32 0] 
r 0.634604457 _25_ RTR  --- 12 message 32 [0 ffffffff 6 800] ------- [6:255 -1:255 32 0] 
r 0.634604484 _5_ RTR  --- 12 message 32 [0 ffffffff 6 800] ------- [6:255 -1:255 32 0] 
r 0.634604523 _16_ RTR  --- 12 message 32 [0 ffffffff 6 800] ------- [6:255 -1:255 32 0] 
r 0.634604534 _9_ RTR  --- 12 message 32 [0 ffffffff 6 800] ------- [6:255 -1:255 32 0] 
s 0.703066137 _21_ RTR  --- 13 message 32 [0 0 0 0] ------- [21:255 -1:255 32 0] 
r 0.704426265 _6_ RTR  --- 13 message 32 [0 ffffffff 15 800] ------- [21:255 -1:255 32 0] 
r 0.704426327 _2_ RTR  --- 13 message 32 [0 ffffffff 15 800] ------- [21:255 -1:255 32 0] 
r 0.704426382 _18_ RTR  --- 13 message 32 [0 ffffffff 15 800] ------- [21:255 -1:255 32 0] 
r 0.704426555 _13_ RTR  --- 13 message 32 [0 ffffffff 15 800] ------- [21:255 -1:255 32 0] 
r 0.704426577 _25_ RTR  --- 13 message 32 [0 ffffffff 15 800] ------- [21:255 -1:255 32 0] 
r 0.704426582 _9_ RTR  --- 13 message 32 [0 ffffffff 15 800] ------- [21:255 -1:255 32 0] 
r 0.704426594 _5_ RTR  --- 13 message 32 [0 ffffffff 15 800] ------- [21:255 -1:255 32 0] 
r 0.704426601 _4_ RTR  --- 13 message 32 [0 ffffffff 15 800] ------- [21:255 -1:255 32 0] 
r 0.704426620 _11_ RTR  --- 13 message 32 [0 ffffffff 15 800] ------- [21:255 -1:255 32 0] 
r 0.704426623 _16_ RTR  --- 13 message 32 [0 ffffffff 15 800] ------- [21:255 -1:255 32 0] 
r 0.704426945 _23_ RTR  --- 13 message 32 [0 ffffffff 15 800] ------- [21:255 -1:255 32 0] 
r 0.704426946 _19_ RTR  --- 13 message 32 [0 ffffffff 15 800] ------- [21:255 -1:255 32 0] 
s 0.818871236 _23_ RTR  --- 14 message 32 [0 0 0 0] ------- [23:255 -1:255 32 0] 
r 0.820031270 _24_ RTR  --- 14 message 32 [0 ffffffff 17 800] ------- [23:255 -1:255 32 0] 
r 0.820031506 _10_ RTR  --- 14 message 32 [0 ffffffff 17 800] ------- [23:255 -1:255 32 0] 
r 0.820031530 _0_ RTR  --- 14 message 32 [0 ffffffff 17 800] ------- [23:255 -1:255 32 0] 
r 0.820031669 _19_ RTR  --- 14 message 32 [0 ffffffff 17 800] ------- [23:255 -1:255 32 0] 
r 0.820031678 _16_ RTR  --- 14 message 32 [0 ffffffff 17 800] ------- [23:255 -1:255 32 0] 
r 0.820031711 _9_ RTR  --- 14 message 32 [0 ffffffff 17 800] ------- [23:255 -1:255 32 0] 
r 0.820031730 _1_ RTR  --- 14 message 32 [0 ffffffff 17 800] ------- [23:255 -1:255 32 0] 
r 0.820031740 _5_ RTR  --- 14 message 32 [0 ffffffff 17 800] ------- [23:255 -1:255 32 0] 
r 0.820031787 _25_ RTR  --- 14 message 32 [0 ffffffff 17 800] ------- [23:255 -1:255 32 0] 
r 0.820031818 _18_ RTR  --- 14 message 32 [0 ffffffff 17 800] ------- [23:255 -1:255 32 0] 
r 0.820031823 _8_ RTR  --- 14 message 32 [0 ffffffff 17 800] ------- [23:255 -1:255 32 0] 
r 0.820031889 _2_ RTR  --- 14 message 32 [0 ffffffff 17 800] ------- [23:255 -1:255 32 0] 
r 0.820031896 _7_ RTR  --- 14 message 32 [0 ffffffff 17 800] ------- [23:255 -1:255 32 0] 
r 0.820031900 _13_ RTR  --- 14 message 32 [0 ffffffff 17 800] ------- [23:255 -1:255 32 0] 
r 0.820031982 _3_ RTR  --- 14 message 32 [0 ffffffff 17 800] ------- [23:255 -1:255 32 0] 
r 0.820032003 _29_ RTR  --- 14 message 32 [0 ffffffff 17 800] ------- [23:255 -1:255 32 0] 
r 0.820032044 _21_ RTR  --- 14 message 32 [0 ffffffff 17 800] ------- [23:255 -1:255 32 0] 
r 0.820032067 _20_ RTR  --- 14 message 32 [0 ffffffff 17 800] ------- [23:255 -1:255 32 0] 
s 0.847315218 _17_ RTR  --- 15 message 32 [0 0 0 0] ------- [17:255 -1:255 32 0] 
r 0.848315510 _15_ RTR  --- 15 message 32 [0 ffffffff 11 800] ------- [17:255 -1:255 32 0] 
r 0.848315615 _28_ RTR  --- 15 message 32 [0 ffffffff 11 800] ------- [17:255 -1:255 32 0] 
r 0.848315646 _27_ RTR  --- 15 message 32 [0 ffffffff 11 800] ------- [17:255 -1:255 32 0] 
r 0.848315651 _14_ RTR  --- 15 message 32 [0 ffffffff 11 800] ------- [17:255 -1:255 32 0] 
r 0.848315663 _7_ RTR  --- 15 message 32 [0 ffffffff 11 800] ------- [17:255 -1:255 32 0] 
r 0.848315664 _12_ RTR  --- 15 message 32 [0 ffffffff 11 800] ------- [17:255 -1:255 32 0] 
r 0.848315706 _26_ RTR  --- 15 message 32 [0 ffffffff 11 800] ------- [17:255 -1:255 32 0] 
r 0.848315735 _8_ RTR  --- 15 message 32 [0 ffffffff 11 800] ------- [17:255 -1:255 32 0] 
r 0.848315786 _20_ RTR  --- 15 message 32 [0 ffffffff 11 800] ------- [17:255 -1:255 32 0] 
r 0.848315927 _22_ RTR  --- 15 message 32 [0 ffffffff 11 800] ------- [17:255 -1:255 32 0] 
r 0.848316028 _0_ RTR  --- 15 message 32 [0 ffffffff 11 800] ------- [17:255 -1:255 32 0] 
s 0.891466156 _4_ RTR  --- 16 message 32 [0 0 0 0] ------- [4:255 -1:255 32 0] 
r 0.892406456 _11_ RTR  --- 16 message 32 [0 ffffffff 4 800] ------- [4:255 -1:255 32 0] 
r 0.892406505 _6_ RTR  --- 16 message 32 [0 ffffffff 4 800] ------- [4:255 -1:255 32 0] 
r 0.892406620 _21_ RTR  --- 16 message 32 [0 ffffffff 4 800] ------- [4:255 -1:255 32 0] 
r 0.892406799 _2_ RTR  --- 16 message 32 [0 ffffffff 4 800] ------- [4:255 -1:255 32 0] 
r 0.892406862 _18_ RTR  --- 16 message 32 [0 ffffffff 4 800] ------- [4:255 -1:255 32 0] 
r 0.892406906 _13_ RTR  --- 16 message 32 [0 ffffffff 4 800] ------- [4:255 -1:255 32 0] 
r 0.892406981 _25_ RTR  --- 16 message 32 [0 ffffffff 4 800] ------- [4:255 -1:255 32 0] 
s 0.932265375 _25_ RTR  --- 17 message 32 [0 0 0 0] ------- [25:255 -1:255 32 0] 
r 0.933225422 _5_ RTR  --- 17 message 32 [0 ffffffff 19 800] ------- [25:255 -1:255 32 0] 
r 0.933225484 _16_ RTR  --- 17 message 32 [0 ffffffff 19 800] ------- [25:255 -1:255 32 0] 
r 0.933225489 _13_ RTR  --- 17 message 32 [0 ffffffff 19 800] ------- [25:255 -1:255 32 0] 
r 0.933225753 _18_ RTR  --- 17 message 32 [0 ffffffff 19 800] ------- [25:255 -1:255 32 0] 
r 0.933225795 _2_ RTR  --- 17 message 32 [0 ffffffff 19 800] ------- [25:255 -1:255 32 0] 
r 0.933225816 _21_ RTR  --- 17 message 32 [0 ffffffff 19 800] ------- [25:255 -1:255 32 0] 
r 0.933225872 _6_ RTR  --- 17 message 32 [0 ffffffff 19 800] ------- [25:255 -1:255 32 0] 
r 0.933225882 _9_ RTR  --- 17 message 32 [0 ffffffff 19 800] ------- [25:255 -1:255 32 0] 
r 0.933225926 _23_ RTR  --- 17 message 32 [0 ffffffff 19 800] ------- [25:255 -1:255 32 0] 
r 0.933225960 _24_ RTR  --- 17 message 32 [0 ffffffff 19 800] ------- [25:255 -1:255 32 0] 
r 0.933226162 _19_ RTR  --- 17 message 32 [0 ffffffff 19 800] ------- [25:255 -1:255 32 0] 
r 0.933226195 _10_ RTR  --- 17 message 32 [0 ffffffff 19 800] ------- [25:255 -1:255 32 0] 
r 0.933226200 _4_ RTR  --- 17 message 32 [0 ffffffff 19 800] ------- [25:255 -1:255 32 0] 
M 1.00000 0 (425.51, 1.65, 0.00), (411.44, 1.65), 14.07
M 1.00000 1 (401.65, 135.00, 0.00), (401.65, 135.00), 15.00
s 1.045355908 _24_ RTR  --- 18 message 32 [0 0 0 0] ------- [24:255 -1:255 32 0] 
r 1.046675942 _23_ RTR  --- 18 message 32 [0 ffffffff 18 800] ------- [24:255 -1:255 32 0] 
r 1.046676144 _10_ RTR  --- 18 message 32 [0 ffffffff 18 800] ------- [24:255 -1:255 32 0] 
r 1.046676165 _0_ RTR  --- 18 message 32 [0 ffffffff 18 800] ------- [24:255 -1:255 32 0] 
r 1.046676333 _19_ RTR  --- 18 message 32 [0 ffffffff 18 800] ------- [24:255 -1:255 32 0] 
r 1.046676384 _16_ RTR  --- 18 message 32 [0 ffffffff 18 800] ------- [24:255 -1:255 32 0] 
r 1.046676387 _1_ RTR  --- 18 message 32 [0 ffffffff 18 800] ------- [24:255 -1:255 32 0] 
r 1.046676402 _9_ RTR  --- 18 message 32 [0 ffffffff 18 800] ------- [24:255 -1:255 32 0] 
r 1.046676446 _5_ RTR  --- 18 message 32 [0 ffffffff 18 800] ------- [24:255 -1:255 32 0] 
r 1.046676461 _8_ RTR  --- 18 message 32 [0 ffffffff 18 800] ------- [24:255 -1:255 32 0] 
r 1.046676492 _25_ RTR  --- 18 message 32 [0 ffffffff 18 800] ------- [24:255 -1:255 32 0] 
r 1.046676516 _18_ RTR  --- 18 message 32 [0 ffffffff 18 800] ------- [24:255 -1:255 32 0] 
r 1.046676533 _7_ RTR  --- 18 message 32 [0 ffffffff 18 800] ------- [24:255 -1:255 32 0] 
r 1.046676587 _2_ RTR  --- 18 message 32 [0 ffffffff 18 800] ------- [24:255 -1:255 32 0] 
r 1.046676606 _13_ RTR  --- 18 message 32 [0 ffffffff 18 800] ------- [24:255 -1:255 32 0] 
r 1.046676644 _3_ RTR  --- 18 message 32 [0 ffffffff 18 800] ------- [24:255 -1:255 32 0] 
r 1.046676667 _29_ RTR  --- 18 message 32 [0 ffffffff 18 800] ------- [24:255 -1:255 32 0] 
r 1.046676709 _20_ RTR  --- 18 message 32 [0 ffffffff 18 800] ------- [24:255 -1:255 32 0] 
s 1.117914998 _1_ RTR  --- 19 message 32 [0 0 0 0] ------- [1:255 -1:255 32 0] 
r 1.118995099 _19_ RTR  --- 19 message 32 [0 ffffffff 1 800] ------- [1:255 -1:255 32 0] 
r 1.118995268 _3_ RTR  --- 19 message 32 [0 ffffffff 1 800] ------- [1:255 -1:255 32 0] 
r 1.118995294 _29_ RTR  --- 19 message 32 [0 ffffffff 1 800] ------- [1:255 -1:255 32 0] 
r 1.118995446 _10_ RTR  --- 19 message 32 [0 ffffffff 1 800] ------- [1:255 -1:255 32 0] 
r 1.118995449 _0_ RTR  --- 19 message 32 [0 ffffffff 1 800] ------- [1:255 -1:255 32 0] 
r 1.118995461 _9_ RTR  --- 19 message 32 [0 ffffffff 1 800] ------- [1:255 -1:255 32 0] 
r 1.118995478 _24_ RTR  --- 19 message 32 [0 ffffffff 1 800] ------- [1:255 -1:255 32 0] 
r 1.118995491 _23_ RTR  --- 19 message 32 [0 ffffffff 1 800] ------- [1:255 -1:255 32 0] 
r 1.118995503 _20_ RTR  --- 19 message 32 [0 ffffffff 1 800] ------- [1:255 -1:255 32 0] 
r 1.118995579 _8_ RTR  --- 19 message 32 [0 ffffffff 1 800] ------- [1:255 -1:255 32 0] 
r 1.118995627 _7_ RTR  --- 19 message 32 [0 ffffffff 1 800] ------- [1:255 -1:255 32 0] 
r 1.118995635 _26_ RTR  --- 19 message 32 [0 ffffffff 1 800] ------- [1:255 -1:255 32 0] 
r 1.118995665 _28_ RTR  --- 19 message 32 [0 ffffffff 1 800] ------- [1:255 -1:255 32 0] 
r 1.118995667 _12_ RTR  --- 19 message 32 [0 ffffffff 1 800] ------- [1:255 -1:255 32 0] 
r 1.118995670 _18_ RTR  --- 19 message 32 [0 ffffffff 1 800] ------- [1:255 -1:255 32 0] 
r 1.118995707 _15_ RTR  --- 19 message 32 [0 ffffffff 1 800] ------- [1:255 -1:255 32 0] 
r 1.118995714 _2_ RTR  --- 19 message 32 [0 ffffffff 1 800] ------- [1:255 -1:255 32 0] 
r 1.118995752 _27_ RTR  --- 19 message 32 [0 ffffffff 1 800] ------- [1:255 -1:255 32 0] 
r 1.118995790 _16_ RTR  --- 19 message 32 [0 ffffffff 1 800] ------- [1:255 -1:255 32 0] 
s 1.279806438 _9_ RTR  --- 20 message 32 [0 0 0 0] ------- [9:255 -1:255 32 0] 
r 1.281146648 _18_ RTR  --- 20 message 32 [0 ffffffff 9 800] ------- [9:255 -1:255 32 0] 
r 1.281146693 _2_ RTR  --- 20 message 32 [0 ffffffff 9 800] ------- [9:255 -1:255 32 0] 
r 1.281146802 _19_ RTR  --- 20 message 32 [0 ffffffff 9 800] ------- [9:255 -1:255 32 0] 
r 1.281146883 _21_ RTR  --- 20 message 32 [0 ffffffff 9 800] ------- [9:255 -1:255 32 0] 
r 1.281146888 _16_ RTR  --- 20 message 32 [0 ffffffff 9 800] ------- [9:255 -1:255 32 0] 
r 1.281146900 _1_ RTR  --- 20 message 32 [0 ffffffff 9 800] ------- [9:255 -1:255 32 0] 
r 1.281146913 _23_ RTR  --- 20 message 32 [0 ffffffff 9 800] ------- [9:255 -1:255 32 0] 
r 1.281146918 _5_ RTR  --- 20 message 32 [0 ffffffff 9 800] ------- [9:255 -1:255 32 0] 
r 1.281146931 _24_ RTR  --- 20 message 32 [0 ffffffff 9 800] ------- [9:255 -1:255 32 0] 
r 1.281146944 _25_ RTR  --- 20 message 32 [0 ffffffff 9 800] ------- [9:255 -1:255 32 0] 
r 1.281146992 _3_ RTR  --- 20 message 32 [0 ffffffff 9 800] ------- [9:255 -1:255 32 0] 
r 1.281146998 _29_ RTR  --- 20 message 32 [0 ffffffff 9 800] ------- [9:255 -1:255 32 0] 
r 1.281147011 _6_ RTR  --- 20 message 32 [0 ffffffff 9 800] ------- [9:255 -1:255 32 0] 
r 1.281147019 _13_ RTR  --- 20 message 32 [0 ffffffff 9 800] ------- [9:255 -1:255 32 0] 