n -t * -s 0  -x 1041.77 -y 824.38999999999999 -Z 0 -z 100  -v circle -c black
n -t * -s 1  -x 1207.02 -y 972.48000000000002 -Z 0 -z 100  -v circle -c black
n -t * -s 2  -x 840.23000000000002 -y 385.95999999999998 -Z 0 -z 100  -v circle -c black
n -t * -s 3  -x 423.87 -y 423.67000000000002 -Z 0 -z 100  -v circle -c black
n -t * -s 4  -x 999.66999999999996 -y 537.64999999999998 -Z 0 -z 100  -v circle -c black
n -t * -s 5  -x 337.06 -y 529.71000000000004 -Z 0 -z 100  -v circle -c black
n -t * -s 6  -x 308.13 -y 265.5 -Z 0 -z 100  -v circle -c black
n -t * -s 7  -x 330.25 -y 1140.6099999999999 -Z 0 -z 100  -v circle -c black
n -t * -s 8  -x 463.12 -y 1331.1099999999999 -Z 0 -z 100  -v circle -c black
n -t * -s 9  -x 311.42000000000002 -y 965.15999999999997 -Z 0 -z 100  -v circle -c black
n -t * -s 10  -x 626.66999999999996 -y 607.78999999999996 -Z 0 -z 100  -v circle -c black
n -t * -s 11  -x 784.63999999999999 -y 1124.78 -Z 0 -z 100  -v circle -c black
n -t * -s 12  -x 375.61000000000001 -y 1162.0899999999999 -Z 0 -z 100  -v circle -c black
n -t * -s 13  -x 55.369999999999997 -y 840.83000000000004 -Z 0 -z 100  -v circle -c black
n -t * -s 14  -x 712.86000000000001 -y 188.66999999999999 -Z 0 -z 100  -v circle -c black
n -t * -s 15  -x 770.11000000000001 -y 321.38 -Z 0 -z 100  -v circle -c black
n -t * -s 16  -x 590.35000000000002 -y 688.88999999999999 -Z 0 -z 100  -v circle -c black
n -t * -s 17  -x 952.84000000000003 -y 510.56999999999999 -Z 0 -z 100  -v circle -c black
n -t * -s 18  -x 239.19999999999999 -y 589.59000000000003 -Z 0 -z 100  -v circle -c black
n -t * -s 19  -x 36.579999999999998 -y 1336.5599999999999 -Z 0 -z 100  -v circle -c black
n -t * -s 20  -x 607.25 -y 659.25 -Z 0 -z 100  -v circle -c black
n -t * -s 21  -x 563.90999999999997 -y 1193.6300000000001 -Z 0 -z 100  -v circle -c black
n -t * -s 22  -x 173.47 -y 682.86000000000001 -Z 0 -z 100  -v circle -c black
n -t * -s 23  -x 975.27999999999997 -y 102.25 -Z 0 -z 100  -v circle -c black
n -t * -s 24  -x 1298.4000000000001 -y 657.25 -Z 0 -z 100  -v circle -c black
n -t * -s 25  -x 504.75999999999999 -y 1181.72 -Z 0 -z 100  -v circle -c black
n -t * -s 26  -x 154 -y 1060.1199999999999 -Z 0 -z 100  -v circle -c black
n -t * -s 27  -x 0 -y 0 -Z 0 -z 100  -v circle -c black
n -t * -s 28  -x 0 -y 1000 -Z 0 -z 100  -v circle -c black
n -t * -s 29  -x 1000 -y 0 -Z 0 -z 100  -v circle -c black
V -t * -v 1.0a5 -a 0
W -t * -x 1700 -y 1700
A -t * -n 1 -p 0 -o 0x7fffffff -c 30 -a 1
A -t * -h 1 -m 1073741823 -s 0
n -t 0.000000 -s 0 -x 1041.770000 -y 824.390000 -U 0.000000 -V 0.000000 -T 0.000000
n -t 0.000000 -s 1 -x 1207.020000 -y 972.480000 -U 0.000000 -V 0.000000 -T 0.000000
n -t 0.000000 -s 2 -x 840.230000 -y 385.960000 -U 0.000000 -V 0.000000 -T 0.000000
n -t 0.000000 -s 3 -x 423.870000 -y 423.670000 -U 0.000000 -V 0.000000 -T 0.000000
n -t 0.000000 -s 4 -x 999.670000 -y 537.650000 -U 0.000000 -V 0.000000 -T 0.000000
n -t 0.000000 -s 5 -x 337.060000 -y 529.710000 -U 0.000000 -V 0.000000 -T 0.000000
n -t 0.000000 -s 6 -x 308.130000 -y 265.500000 -U 0.000000 -V 0.000000 -T 0.000000
n -t 0.000000 -s 7 -x 330.250000 -y 1140.610000 -U 0.000000 -V 0.000000 -T 0.000000
n -t 0.000000 -s 8 -x 463.120000 -y 1331.110000 -U 0.000000 -V 0.000000 -T 0.000000
n -t 0.000000 -s 9 -x 311.420000 -y 965.160000 -U 0.000000 -V 0.000000 -T 0.000000
n -t 0.000000 -s 10 -x 626.670000 -y 607.790000 -U 0.000000 -V 0.000000 -T 0.000000
n -t 0.000000 -s 11 -x 784.640000 -y 1124.780000 -U 0.000000 -V 0.000000 -T 0.000000
n -t 0.000000 -s 12 -x 375.610000 -y 1162.090000 -U 0.000000 -V 0.000000 -T 0.000000
n -t 0.000000 -s 13 -x 55.370000 -y 840.830000 -U 0.000000 -V 0.000000 -T 0.000000
n -t 0.000000 -s 14 -x 712.860000 -y 188.670000 -U 0.000000 -V 0.000000 -T 0.000000
n -t 0.000000 -s 15 -x 770.110000 -y 321.380000 -U 0.000000 -V 0.000000 -T 0.000000
n -t 0.000000 -s 16 -x 590.350000 -y 688.890000 -U 0.000000 -V 0.000000 -T 0.000000
n -t 0.000000 -s 17 -x 952.840000 -y 510.570000 -U 0.000000 -V 0.000000 -T 0.000000
n -t 0.000000 -s 18 -x 239.200000 -y 589.590000 -U 0.000000 -V 0.000000 -T 0.000000
n -t 0.000000 -s 19 -x 36.580000 -y 1336.560000 -U 0.000000 -V 0.000000 -T 0.000000
n -t 0.000000 -s 20 -x 607.250000 -y 659.250000 -U 0.000000 -V 0.000000 -T 0.000000
n -t 0.000000 -s 21 -x 563.910000 -y 1193.630000 -U 0.000000 -V 0.000000 -T 0.000000
n -t 0.000000 -s 22 -x 173.470000 -y 682.860000 -U 0.000000 -V 0.000000 -T 0.000000
n -t 0.000000 -s 23 -x 975.280000 -y 102.250000 -U 0.000000 -V 0.000000 -T 0.000000
n -t 0.000000 -s 24 -x 1298.400000 -y 657.250000 -U 0.000000 -V 0.000000 -T 0.000000
n -t 0.000000 -s 25 -x 504.760000 -y 1181.720000 -U 0.000000 -V 0.000000 -T 0.000000
n -t 0.000000 -s 26 -x 154.000000 -y 1060.120000 -U 0.000000 -V 0.000000 -T 0.000000
n -t 0.000000 -s 0 -x 1041.770000 -y 824.390000 -U 0.000000 -V 0.000000 -T 0.000000
n -t 0.000000 -s 1 -x 1207.020000 -y 972.480000 -U 0.000000 -V 0.000000 -T 0.000000
+ -t 0.003091411 -s 0 -d -1 -p message -e 32 -c 2 -a 0 -i 0 -k RTR 
- -t 0.003091411 -s 0 -d -1 -p message -e 32 -c 2 -a 0 -i 0 -k RTR
h -t 0.003091411 -s 0 -d -1 -p message -e 32 -c 2 -a 0 -i 0 -k RTR
+ -t 0.003466411 -s 0 -d -1 -p message -e 90 -c 2 -a 0 -i 0 -k MAC 
- -t 0.003466411 -s 0 -d -1 -p message -e 90 -c 2 -a 0 -i 0 -k MAC
h -t 0.003466411 -s 0 -d -1 -p message -e 90 -c 2 -a 0 -i 0 -k MAC
r -t 0.004187150 -s 1 -d -1 -p message -e 32 -c 2 -a 0 -i 0 -k MAC
r -t 0.004187377 -s 4 -d -1 -p message -e 32 -c 2 -a 0 -i 0 -k MAC
r -t 0.004187432 -s 24 -d -1 -p message -e 32 -c 2 -a 0 -i 0 -k MAC
r -t 0.004187498 -s 17 -d -1 -p message -e 32 -c 2 -a 0 -i 0 -k MAC
r -t 0.004187729 -s 11 -d -1 -p message -e 32 -c 2 -a 0 -i 0 -k MAC
r -t 0.004212150 -s 1 -d -1 -p message -e 32 -c 2 -a 0 -i 0 -k RTR
r -t 0.004212377 -s 4 -d -1 -p message -e 32 -c 2 -a 0 -i 0 -k RTR
r -t 0.004212432 -s 24 -d -1 -p message -e 32 -c 2 -a 0 -i 0 -k RTR
r -t 0.004212498 -s 17 -d -1 -p message -e 32 -c 2 -a 0 -i 0 -k RTR
r -t 0.004212729 -s 11 -d -1 -p message -e 32 -c 2 -a 0 -i 0 -k RTR
+ -t 0.037458776 -s 2 -d -1 -p message -e 32 -c 2 -a 0 -i 1 -k RTR 
- -t 0.037458776 -s 2 -d -1 -p message -e 32 -c 2 -a 0 -i 1 -k RTR
h -t 0.037458776 -s 2 -d -1 -p message -e 32 -c 2 -a 0 -i 1 -k RTR
+ -t 0.037813776 -s 2 -d -1 -p message -e 90 -c 2 -a 0 -i 1 -k MAC 
- -t 0.037813776 -s 2 -d -1 -p message -e 90 -c 2 -a 0 -i 1 -k MAC
h -t 0.037813776 -s 2 -d -1 -p message -e 90 -c 2 -a 0 -i 1 -k MAC
r -t 0.038534094 -s 15 -d -1 -p message -e 32 -c 2 -a 0 -i 1 -k MAC
r -t 0.038534336 -s 17 -d -1 -p message -e 32 -c 2 -a 0 -i 1 -k MAC
r -t 0.038534510 -s 4 -d -1 -p message -e 32 -c 2 -a 0 -i 1 -k MAC
r -t 0.038534559 -s 14 -d -1 -p message -e 32 -c 2 -a 0 -i 1 -k MAC
r -t 0.038534802 -s 10 -d -1 -p message -e 32 -c 2 -a 0 -i 1 -k MAC
r -t 0.038534823 -s 23 -d -1 -p message -e 32 -c 2 -a 0 -i 1 -k MAC
r -t 0.038534973 -s 20 -d -1 -p message -e 32 -c 2 -a 0 -i 1 -k MAC
r -t 0.038535085 -s 16 -d -1 -p message -e 32 -c 2 -a 0 -i 1 -k MAC
r -t 0.038559094 -s 15 -d -1 -p message -e 32 -c 2 -a 0 -i 1 -k RTR
r -t 0.038559336 -s 17 -d -1 -p message -e 32 -c 2 -a 0 -i 1 -k RTR
r -t 0.038559510 -s 4 -d -1 -p message -e 32 -c 2 -a 0 -i 1 -k RTR
r -t 0.038559559 -s 14 -d -1 -p message -e 32 -c 2 -a 0 -i 1 -k RTR
r -t 0.038559802 -s 10 -d -1 -p message -e 32 -c 2 -a 0 -i 1 -k RTR
r -t 0.038559823 -s 23 -d -1 -p message -e 32 -c 2 -a 0 -i 1 -k RTR
r -t 0.038559973 -s 20 -d -1 -p message -e 32 -c 2 -a 0 -i 1 -k RTR
r -t 0.038560085 -s 16 -d -1 -p message -e 32 -c 2 -a 0 -i 1 -k RTR
+ -t 0.087462768 -s 13 -d -1 -p message -e 32 -c 2 -a 0 -i 2 -k RTR 
- -t 0.087462768 -s 13 -d -1 -p message -e 32 -c 2 -a 0 -i 2 -k RTR
h -t 0.087462768 -s 13 -d -1 -p message -e 32 -c 2 -a 0 -i 2 -k RTR
+ -t 0.087757768 -s 13 -d -1 -p message -e 90 -c 2 -a 0 -i 2 -k MAC 
- -t 0.087757768 -s 13 -d -1 -p message -e 90 -c 2 -a 0 -i 2 -k MAC
h -t 0.087757768 -s 13 -d -1 -p message -e 90 -c 2 -a 0 -i 2 -k MAC
r -t 0.088478330 -s 28 -d -1 -p message -e 32 -c 2 -a 0 -i 2 -k MAC
r -t 0.088478425 -s 22 -d -1 -p message -e 32 -c 2 -a 0 -i 2 -k MAC
r -t 0.088478569 -s 26 -d -1 -p message -e 32 -c 2 -a 0 -i 2 -k MAC
r -t 0.088478717 -s 9 -d -1 -p message -e 32 -c 2 -a 0 -i 2 -k MAC
r -t 0.088478806 -s 18 -d -1 -p message -e 32 -c 2 -a 0 -i 2 -k MAC
r -t 0.088503330 -s 28 -d -1 -p message -e 32 -c 2 -a 0 -i 2 -k RTR
r -t 0.088503425 -s 22 -d -1 -p message -e 32 -c 2 -a 0 -i 2 -k RTR
r -t 0.088503569 -s 26 -d -1 -p message -e 32 -c 2 -a 0 -i 2 -k RTR
r -t 0.088503717 -s 9 -d -1 -p message -e 32 -c 2 -a 0 -i 2 -k RTR
r -t 0.088503806 -s 18 -d -1 -p message -e 32 -c 2 -a 0 -i 2 -k RTR
+ -t 0.177365656 -s 3 -d -1 -p message -e 32 -c 2 -a 0 -i 3 -k RTR 
- -t 0.177365656 -s 3 -d -1 -p message -e 32 -c 2 -a 0 -i 3 -k RTR
h -t 0.177365656 -s 3 -d -1 -p message -e 32 -c 2 -a 0 -i 3 -k RTR
+ -t 0.177560656 -s 3 -d -1 -p message -e 90 -c 2 -a 0 -i 3 -k MAC 
- -t 0.177560656 -s 3 -d -1 -p message -e 90 -c 2 -a 0 -i 3 -k MAC
h -t 0.177560656 -s 3 -d -1 -p message -e 90 -c 2 -a 0 -i 3 -k MAC
r -t 0.178281113 -s 5 -d -1 -p message -e 32 -c 2 -a 0 -i 3 -k MAC
r -t 0.178281309 -s 6 -d -1 -p message -e 32 -c 2 -a 0 -i 3 -k MAC
r -t 0.178281483 -s 18 -d -1 -p message -e 32 -c 2 -a 0 -i 3 -k MAC
r -t 0.178281569 -s 10 -d -1 -p message -e 32 -c 2 -a 0 -i 3 -k MAC
r -t 0.178281651 -s 20 -d -1 -p message -e 32 -c 2 -a 0 -i 3 -k MAC
r -t 0.178281700 -s 16 -d -1 -p message -e 32 -c 2 -a 0 -i 3 -k MAC
r -t 0.178281857 -s 22 -d -1 -p message -e 32 -c 2 -a 0 -i 3 -k MAC
r -t 0.178281859 -s 15 -d -1 -p message -e 32 -c 2 -a 0 -i 3 -k MAC
r -t 0.178281897 -s 14 -d -1 -p message -e 32 -c 2 -a 0 -i 3 -k MAC
r -t 0.178306113 -s 5 -d -1 -p message -e 32 -c 2 -a 0 -i 3 -k RTR
r -t 0.178306309 -s 6 -d -1 -p message -e 32 -c 2 -a 0 -i 3 -k RTR
r -t 0.178306483 -s 18 -d -1 -p message -e 32 -c 2 -a 0 -i 3 -k RTR
r -t 0.178306569 -s 10 -d -1 -p message -e 32 -c 2 -a 0 -i 3 -k RTR
r -t 0.178306651 -s 20 -d -1 -p message -e 32 -c 2 -a 0 -i 3 -k RTR
r -t 0.178306700 -s 16 -d -1 -p message -e 32 -c 2 -a 0 -i 3 -k RTR
r -t 0.178306857 -s 22 -d -1 -p message -e 32 -c 2 -a 0 -i 3 -k RTR
r -t 0.178306859 -s 15 -d -1 -p message -e 32 -c 2 -a 0 -i 3 -k RTR
r -t 0.178306897 -s 14 -d -1 -p message -e 32 -c 2 -a 0 -i 3 -k RTR
+ -t 0.191634337 -s 19 -d -1 -p message -e 32 -c 2 -a 0 -i 4 -k RTR 
- -t 0.191634337 -s 19 -d -1 -p message -e 32 -c 2 -a 0 -i 4 -k RTR
h -t 0.191634337 -s 19 -d -1 -p message -e 32 -c 2 -a 0 -i 4 -k RTR
+ -t 0.191889337 -s 19 -d -1 -p message -e 90 -c 2 -a 0 -i 4 -k MAC 
- -t 0.191889337 -s 19 -d -1 -p message -e 90 -c 2 -a 0 -i 4 -k MAC
h -t 0.191889337 -s 19 -d -1 -p message -e 90 -c 2 -a 0 -i 4 -k MAC
r -t 0.192610338 -s 26 -d -1 -p message -e 32 -c 2 -a 0 -i 4 -k MAC
r -t 0.192610465 -s 28 -d -1 -p message -e 32 -c 2 -a 0 -i 4 -k MAC
r -t 0.192610513 -s 7 -d -1 -p message -e 32 -c 2 -a 0 -i 4 -k MAC
r -t 0.192610608 -s 12 -d -1 -p message -e 32 -c 2 -a 0 -i 4 -k MAC
r -t 0.192635338 -s 26 -d -1 -p message -e 32 -c 2 -a 0 -i 4 -k RTR
r -t 0.192635465 -s 28 -d -1 -p message -e 32 -c 2 -a 0 -i 4 -k RTR
r -t 0.192635513 -s 7 -d -1 -p message -e 32 -c 2 -a 0 -i 4 -k RTR
r -t 0.192635608 -s 12 -d -1 -p message -e 32 -c 2 -a 0 -i 4 -k RTR
+ -t 0.234603229 -s 15 -d -1 -p message -e 32 -c 2 -a 0 -i 5 -k RTR 
- -t 0.234603229 -s 15 -d -1 -p message -e 32 -c 2 -a 0 -i 5 -k RTR
h -t 0.234603229 -s 15 -d -1 -p message -e 32 -c 2 -a 0 -i 5 -k RTR
+ -t 0.234898229 -s 15 -d -1 -p message -e 90 -c 2 -a 0 -i 5 -k MAC 
- -t 0.234898229 -s 15 -d -1 -p message -e 90 -c 2 -a 0 -i 5 -k MAC
h -t 0.234898229 -s 15 -d -1 -p message -e 90 -c 2 -a 0 -i 5 -k MAC
r -t 0.235618547 -s 2 -d -1 -p message -e 32 -c 2 -a 0 -i 5 -k MAC
r -t 0.235618711 -s 14 -d -1 -p message -e 32 -c 2 -a 0 -i 5 -k MAC
r -t 0.235619106 -s 17 -d -1 -p message -e 32 -c 2 -a 0 -i 5 -k MAC
r -t 0.235619230 -s 23 -d -1 -p message -e 32 -c 2 -a 0 -i 5 -k MAC
r -t 0.235619281 -s 4 -d -1 -p message -e 32 -c 2 -a 0 -i 5 -k MAC
r -t 0.235619297 -s 10 -d -1 -p message -e 32 -c 2 -a 0 -i 5 -k MAC
r -t 0.235619433 -s 3 -d -1 -p message -e 32 -c 2 -a 0 -i 5 -k MAC
r -t 0.235619480 -s 20 -d -1 -p message -e 32 -c 2 -a 0 -i 5 -k MAC
r -t 0.235619547 -s 29 -d -1 -p message -e 32 -c 2 -a 0 -i 5 -k MAC
r -t 0.235643547 -s 2 -d -1 -p message -e 32 -c 2 -a 0 -i 5 -k RTR
r -t 0.235643711 -s 14 -d -1 -p message -e 32 -c 2 -a 0 -i 5 -k RTR
r -t 0.235644106 -s 17 -d -1 -p message -e 32 -c 2 -a 0 -i 5 -k RTR
r -t 0.235644230 -s 23 -d -1 -p message -e 32 -c 2 -a 0 -i 5 -k RTR
r -t 0.235644281 -s 4 -d -1 -p message -e 32 -c 2 -a 0 -i 5 -k RTR
r -t 0.235644297 -s 10 -d -1 -p message -e 32 -c 2 -a 0 -i 5 -k RTR
r -t 0.235644433 -s 3 -d -1 -p message -e 32 -c 2 -a 0 -i 5 -k RTR
r -t 0.235644480 -s 20 -d -1 -p message -e 32 -c 2 -a 0 -i 5 -k RTR
r -t 0.235644547 -s 29 -d -1 -p message -e 32 -c 2 -a 0 -i 5 -k RTR
+ -t 0.333839210 -s 12 -d -1 -p message -e 32 -c 2 -a 0 -i 6 -k RTR 
- -t 0.333839210 -s 12 -d -1 -p message -e 32 -c 2 -a 0 -i 6 -k RTR
h -t 0.333839210 -s 12 -d -1 -p message -e 32 -c 2 -a 0 -i 6 -k RTR
+ -t 0.333994210 -s 12 -d -1 -p message -e 90 -c 2 -a 0 -i 6 -k MAC 
- -t 0.333994210 -s 12 -d -1 -p message -e 90 -c 2 -a 0 -i 6 -k MAC
h -t 0.333994210 -s 12 -d -1 -p message -e 90 -c 2 -a 0 -i 6 -k MAC
r -t 0.334714377 -s 7 -d -1 -p message -e 32 -c 2 -a 0 -i 6 -k MAC
r -t 0.334714645 -s 25 -d -1 -p message -e 32 -c 2 -a 0 -i 6 -k MAC
r -t 0.334714844 -s 8 -d -1 -p message -e 32 -c 2 -a 0 -i 6 -k MAC
r -t 0.334714846 -s 21 -d -1 -p message -e 32 -c 2 -a 0 -i 6 -k MAC
r -t 0.334714900 -s 9 -d -1 -p message -e 32 -c 2 -a 0 -i 6 -k MAC
r -t 0.334715023 -s 26 -d -1 -p message -e 32 -c 2 -a 0 -i 6 -k MAC
r -t 0.334715481 -s 19 -d -1 -p message -e 32 -c 2 -a 0 -i 6 -k MAC
r -t 0.334739377 -s 7 -d -1 -p message -e 32 -c 2 -a 0 -i 6 -k RTR
r -t 0.334739645 -s 25 -d -1 -p message -e 32 -c 2 -a 0 -i 6 -k RTR
r -t 0.334739844 -s 8 -d -1 -p message -e 32 -c 2 -a 0 -i 6 -k RTR
r -t 0.334739846 -s 21 -d -1 -p message -e 32 -c 2 -a 0 -i 6 -k RTR
r -t 0.334739900 -s 9 -d -1 -p message -e 32 -c 2 -a 0 -i 6 -k RTR
r -t 0.334740023 -s 26 -d -1 -p message -e 32 -c 2 -a 0 -i 6 -k RTR
r -t 0.334740481 -s 19 -d -1 -p message -e 32 -c 2 -a 0 -i 6 -k RTR
+ -t 0.351472650 -s 18 -d -1 -p message -e 32 -c 2 -a 0 -i 7 -k RTR 
- -t 0.351472650 -s 18 -d -1 -p message -e 32 -c 2 -a 0 -i 7 -k RTR
h -t 0.351472650 -s 18 -d -1 -p message -e 32 -c 2 -a 0 -i 7 -k RTR
+ -t 0.351847650 -s 18 -d -1 -p message -e 90 -c 2 -a 0 -i 7 -k MAC 
- -t 0.351847650 -s 18 -d -1 -p message -e 90 -c 2 -a 0 -i 7 -k MAC
h -t 0.351847650 -s 18 -d -1 -p message -e 90 -c 2 -a 0 -i 7 -k MAC
r -t 0.352568031 -s 22 -d -1 -p message -e 32 -c 2 -a 0 -i 7 -k MAC
r -t 0.352568033 -s 5 -d -1 -p message -e 32 -c 2 -a 0 -i 7 -k MAC
r -t 0.352568478 -s 3 -d -1 -p message -e 32 -c 2 -a 0 -i 7 -k MAC
r -t 0.352568688 -s 13 -d -1 -p message -e 32 -c 2 -a 0 -i 7 -k MAC
r -t 0.352568755 -s 6 -d -1 -p message -e 32 -c 2 -a 0 -i 7 -k MAC
r -t 0.352568867 -s 16 -d -1 -p message -e 32 -c 2 -a 0 -i 7 -k MAC
r -t 0.352568899 -s 20 -d -1 -p message -e 32 -c 2 -a 0 -i 7 -k MAC
r -t 0.352568925 -s 9 -d -1 -p message -e 32 -c 2 -a 0 -i 7 -k MAC
r -t 0.352568943 -s 10 -d -1 -p message -e 32 -c 2 -a 0 -i 7 -k MAC
r -t 0.352593031 -s 22 -d -1 -p message -e 32 -c 2 -a 0 -i 7 -k RTR
r -t 0.352593033 -s 5 -d -1 -p message -e 32 -c 2 -a 0 -i 7 -k RTR
r -t 0.352593478 -s 3 -d -1 -p message -e 32 -c 2 -a 0 -i 7 -k RTR
r -t 0.352593688 -s 13 -d -1 -p message -e 32 -c 2 -a 0 -i 7 -k RTR
r -t 0.352593755 -s 6 -d -1 -p message -e 32 -c 2 -a 0 -i 7 -k RTR
r -t 0.352593867 -s 16 -d -1 -p message -e 32 -c 2 -a 0 -i 7 -k RTR
r -t 0.352593899 -s 20 -d -1 -p message -e 32 -c 2 -a 0 -i 7 -k RTR
r -t 0.352593925 -s 9 -d -1 -p message -e 32 -c 2 -a 0 -i 7 -k RTR
r -t 0.352593943 -s 10 -d -1 -p message -e 32 -c 2 -a 0 -i 7 -k RTR
+ -t 0.436386259 -s 29 -d -1 -p message -e 32 -c 2 -a 0 -i 8 -k RTR 
- -t 0.436386259 -s 29 -d -1 -p message -e 32 -c 2 -a 0 -i 8 -k RTR
h -t 0.436386259 -s 29 -d -1 -p message -e 32 -c 2 -a 0 -i 8 -k RTR
+ -t 0.436701259 -s 29 -d -1 -p message -e 90 -c 2 -a 0 -i 8 -k MAC 
- -t 0.436701259 -s 29 -d -1 -p message -e 90 -c 2 -a 0 -i 8 -k MAC
h -t 0.436701259 -s 29 -d -1 -p message -e 90 -c 2 -a 0 -i 8 -k MAC
r -t 0.437421610 -s 23 -d -1 -p message -e 32 -c 2 -a 0 -i 8 -k MAC
r -t 0.437422404 -s 14 -d -1 -p message -e 32 -c 2 -a 0 -i 8 -k MAC
r -t 0.437422576 -s 15 -d -1 -p message -e 32 -c 2 -a 0 -i 8 -k MAC
r -t 0.437446610 -s 23 -d -1 -p message -e 32 -c 2 -a 0 -i 8 -k RTR
r -t 0.437447404 -s 14 -d -1 -p message -e 32 -c 2 -a 0 -i 8 -k RTR
r -t 0.437447576 -s 15 -d -1 -p message -e 32 -c 2 -a 0 -i 8 -k RTR
+ -t 0.470117073 -s 8 -d -1 -p message -e 32 -c 2 -a 0 -i 9 -k RTR 
- -t 0.470117073 -s 8 -d -1 -p message -e 32 -c 2 -a 0 -i 9 -k RTR
h -t 0.470117073 -s 8 -d -1 -p message -e 32 -c 2 -a 0 -i 9 -k RTR
+ -t 0.470652073 -s 8 -d -1 -p message -e 90 -c 2 -a 0 -i 9 -k MAC 
- -t 0.470652073 -s 8 -d -1 -p message -e 90 -c 2 -a 0 -i 9 -k MAC
h -t 0.470652073 -s 8 -d -1 -p message -e 90 -c 2 -a 0 -i 9 -k MAC
r -t 0.471372590 -s 25 -d -1 -p message -e 32 -c 2 -a 0 -i 9 -k MAC
r -t 0.471372641 -s 21 -d -1 -p message -e 32 -c 2 -a 0 -i 9 -k MAC
r -t 0.471372707 -s 12 -d -1 -p message -e 32 -c 2 -a 0 -i 9 -k MAC
r -t 0.471372847 -s 7 -d -1 -p message -e 32 -c 2 -a 0 -i 9 -k MAC
r -t 0.471373346 -s 11 -d -1 -p message -e 32 -c 2 -a 0 -i 9 -k MAC
r -t 0.471373393 -s 9 -d -1 -p message -e 32 -c 2 -a 0 -i 9 -k MAC
r -t 0.471397590 -s 25 -d -1 -p message -e 32 -c 2 -a 0 -i 9 -k RTR
r -t 0.471397641 -s 21 -d -1 -p message -e 32 -c 2 -a 0 -i 9 -k RTR
r -t 0.471397707 -s 12 -d -1 -p message -e 32 -c 2 -a 0 -i 9 -k RTR
r -t 0.471397847 -s 7 -d -1 -p message -e 32 -c 2 -a 0 -i 9 -k RTR
r -t 0.471398346 -s 11 -d -1 -p message -e 32 -c 2 -a 0 -i 9 -k RTR
r -t 0.471398393 -s 9 -d -1 -p message -e 32 -c 2 -a 0 -i 9 -k RTR
+ -t 0.521504883 -s 22 -d -1 -p message -e 32 -c 2 -a 0 -i 10 -k RTR 
- -t 0.521504883 -s 22 -d -1 -p message -e 32 -c 2 -a 0 -i 10 -k RTR
h -t 0.521504883 -s 22 -d -1 -p message -e 32 -c 2 -a 0 -i 10 -k RTR
+ -t 0.521659883 -s 22 -d -1 -p message -e 90 -c 2 -a 0 -i 10 -k MAC 
- -t 0.521659883 -s 22 -d -1 -p message -e 90 -c 2 -a 0 -i 10 -k MAC
h -t 0.521659883 -s 22 -d -1 -p message -e 90 -c 2 -a 0 -i 10 -k MAC
r -t 0.522380264 -s 18 -d -1 -p message -e 32 -c 2 -a 0 -i 10 -k MAC
r -t 0.522380541 -s 13 -d -1 -p message -e 32 -c 2 -a 0 -i 10 -k MAC
r -t 0.522380630 -s 5 -d -1 -p message -e 32 -c 2 -a 0 -i 10 -k MAC
r -t 0.522380931 -s 9 -d -1 -p message -e 32 -c 2 -a 0 -i 10 -k MAC
r -t 0.522381084 -s 3 -d -1 -p message -e 32 -c 2 -a 0 -i 10 -k MAC
r -t 0.522381088 -s 28 -d -1 -p message -e 32 -c 2 -a 0 -i 10 -k MAC
r -t 0.522381142 -s 26 -d -1 -p message -e 32 -c 2 -a 0 -i 10 -k MAC
r -t 0.522405264 -s 18 -d -1 -p message -e 32 -c 2 -a 0 -i 10 -k RTR
r -t 0.522405541 -s 13 -d -1 -p message -e 32 -c 2 -a 0 -i 10 -k RTR
r -t 0.522405630 -s 5 -d -1 -p message -e 32 -c 2 -a 0 -i 10 -k RTR
r -t 0.522405931 -s 9 -d -1 -p message -e 32 -c 2 -a 0 -i 10 -k RTR
r -t 0.522406084 -s 3 -d -1 -p message -e 32 -c 2 -a 0 -i 10 -k RTR
r -t 0.522406088 -s 28 -d -1 -p message -e 32 -c 2 -a 0 -i 10 -k RTR
r -t 0.522406142 -s 26 -d -1 -p message -e 32 -c 2 -a 0 -i 10 -k RTR
+ -t 0.556838879 -s 28 -d -1 -p cbr -e 512 -c 2 -a 0 -i 11 -k AGT 
- -t 0.556838879 -s 28 -d -1 -p cbr -e 512 -c 2 -a 0 -i 11 -k AGT
h -t 0.556838879 -s 28 -d -1 -p cbr -e 512 -c 2 -a 0 -i 11 -k AGT
+ -t 0.627186592 -s 10 -d -1 -p message -e 32 -c 2 -a 0 -i 12 -k RTR 
- -t 0.627186592 -s 10 -d -1 -p message -e 32 -c 2 -a 0 -i 12 -k RTR
h -t 0.627186592 -s 10 -d -1 -p message -e 32 -c 2 -a 0 -i 12 -k RTR
+ -t 0.627321592 -s 10 -d -1 -p message -e 90 -c 2 -a 0 -i 12 -k MAC 
- -t 0.627321592 -s 10 -d -1 -p message -e 90 -c 2 -a 0 -i 12 -k MAC
h -t 0.627321592 -s 10 -d -1 -p message -e 90 -c 2 -a 0 -i 12 -k MAC
r -t 0.628041775 -s 20 -d -1 -p message -e 32 -c 2 -a 0 -i 12 -k MAC
r -t 0.628041888 -s 16 -d -1 -p message -e 32 -c 2 -a 0 -i 12 -k MAC
r -t 0.628042505 -s 3 -d -1 -p message -e 32 -c 2 -a 0 -i 12 -k MAC
r -t 0.628042592 -s 5 -d -1 -p message -e 32 -c 2 -a 0 -i 12 -k MAC
r -t 0.628042619 -s 2 -d -1 -p message -e 32 -c 2 -a 0 -i 12 -k MAC
r -t 0.628042660 -s 15 -d -1 -p message -e 32 -c 2 -a 0 -i 12 -k MAC
r -t 0.628042727 -s 17 -d -1 -p message -e 32 -c 2 -a 0 -i 12 -k MAC
r -t 0.628042857 -s 4 -d -1 -p message -e 32 -c 2 -a 0 -i 12 -k MAC
r -t 0.628042885 -s 18 -d -1 -p message -e 32 -c 2 -a 0 -i 12 -k MAC
r -t 0.628066775 -s 20 -d -1 -p message -e 32 -c 2 -a 0 -i 12 -k RTR
r -t 0.628066888 -s 16 -d -1 -p message -e 32 -c 2 -a 0 -i 12 -k RTR
r -t 0.628067505 -s 3 -d -1 -p message -e 32 -c 2 -a 0 -i 12 -k RTR
r -t 0.628067592 -s 5 -d -1 -p message -e 32 -c 2 -a 0 -i 12 -k RTR
r -t 0.628067619 -s 2 -d -1 -p message -e 32 -c 2 -a 0 -i 12 -k RTR
r -t 0.628067660 -s 15 -d -1 -p message -e 32 -c 2 -a 0 -i 12 -k RTR
r -t 0.628067727 -s 17 -d -1 -p message -e 32 -c 2 -a 0 -i 12 -k RTR
r -t 0.628067857 -s 4 -d -1 -p message -e 32 -c 2 -a 0 -i 12 -k RTR
r -t 0.628067885 -s 18 -d -1 -p message -e 32 -c 2 -a 0 -i 12 -k RTR
+ -t 0.634670006 -s 6 -d -1 -p message -e 32 -c 2 -a 0 -i 13 -k RTR 
- -t 0.634670006 -s 6 -d -1 -p message -e 32 -c 2 -a 0 -i 13 -k RTR
h -t 0.634670006 -s 6 -d -1 -p message -e 32 -c 2 -a 0 -i 13 -k RTR
+ -t 0.634865006 -s 6 -d -1 -p message -e 90 -c 2 -a 0 -i 13 -k MAC 
- -t 0.634865006 -s 6 -d -1 -p message -e 90 -c 2 -a 0 -i 13 -k MAC
h -t 0.634865006 -s 6 -d -1 -p message -e 90 -c 2 -a 0 -i 13 -k MAC
r -t 0.635585660 -s 3 -d -1 -p message -e 32 -c 2 -a 0 -i 13 -k MAC
r -t 0.635585892 -s 5 -d -1 -p message -e 32 -c 2 -a 0 -i 13 -k MAC
r -t 0.635586111 -s 18 -d -1 -p message -e 32 -c 2 -a 0 -i 13 -k MAC
r -t 0.635610660 -s 3 -d -1 -p message -e 32 -c 2 -a 0 -i 13 -k RTR
r -t 0.635610892 -s 5 -d -1 -p message -e 32 -c 2 -a 0 -i 13 -k RTR
r -t 0.635611111 -s 18 -d -1 -p message -e 32 -c 2 -a 0 -i 13 -k RTR
+ -t 0.705637875 -s 21 -d -1 -p message -e 32 -c 2 -a 0 -i 14 -k RTR 
- -t 0.705637875 -s 21 -d -1 -p message -e 32 -c 2 -a 0 -i 14 -k RTR
h -t 0.705637875 -s 21 -d -1 -p message -e 32 -c 2 -a 0 -i 14 -k RTR
+ -t 0.706012875 -s 21 -d -1 -p message -e 90 -c 2 -a 0 -i 14 -k MAC 
- -t 0.706012875 -s 21 -d -1 -p message -e 90 -c 2 -a 0 -i 14 -k MAC
h -t 0.706012875 -s 21 -d -1 -p message -e 90 -c 2 -a 0 -i 14 -k MAC
r -t 0.706733076 -s 25 -d -1 -p message -e 32 -c 2 -a 0 -i 14 -k MAC
r -t 0.706733443 -s 8 -d -1 -p message -e 32 -c 2 -a 0 -i 14 -k MAC
r -t 0.706733511 -s 12 -d -1 -p message -e 32 -c 2 -a 0 -i 14 -k MAC
r -t 0.706733645 -s 11 -d -1 -p message -e 32 -c 2 -a 0 -i 14 -k MAC
r -t 0.706733673 -s 7 -d -1 -p message -e 32 -c 2 -a 0 -i 14 -k MAC
r -t 0.706734010 -s 9 -d -1 -p message -e 32 -c 2 -a 0 -i 14 -k MAC
r -t 0.706758076 -s 25 -d -1 -p message -e 32 -c 2 -a 0 -i 14 -k RTR
r -t 0.706758443 -s 8 -d -1 -p message -e 32 -c 2 -a 0 -i 14 -k RTR
r -t 0.706758511 -s 12 -d -1 -p message -e 32 -c 2 -a 0 -i 14 -k RTR
r -t 0.706758645 -s 11 -d -1 -p message -e 32 -c 2 -a 0 -i 14 -k RTR
r -t 0.706758673 -s 7 -d -1 -p message -e 32 -c 2 -a 0 -i 14 -k RTR
r -t 0.706759010 -s 9 -d -1 -p message -e 32 -c 2 -a 0 -i 14 -k RTR
+ -t 0.821435127 -s 23 -d -1 -p message -e 32 -c 2 -a 0 -i 15 -k RTR 
- -t 0.821435127 -s 23 -d -1 -p message -e 32 -c 2 -a 0 -i 15 -k RTR
h -t 0.821435127 -s 23 -d -1 -p message -e 32 -c 2 -a 0 -i 15 -k RTR
+ -t 0.821550127 -s 23 -d -1 -p message -e 90 -c 2 -a 0 -i 15 -k MAC 
- -t 0.821550127 -s 23 -d -1 -p message -e 90 -c 2 -a 0 -i 15 -k MAC
h -t 0.821550127 -s 23 -d -1 -p message -e 90 -c 2 -a 0 -i 15 -k MAC
r -t 0.822270478 -s 29 -d -1 -p message -e 32 -c 2 -a 0 -i 15 -k MAC
r -t 0.822271048 -s 14 -d -1 -p message -e 32 -c 2 -a 0 -i 15 -k MAC
r -t 0.822271128 -s 15 -d -1 -p message -e 32 -c 2 -a 0 -i 15 -k MAC
r -t 0.822271175 -s 2 -d -1 -p message -e 32 -c 2 -a 0 -i 15 -k MAC
r -t 0.822295478 -s 29 -d -1 -p message -e 32 -c 2 -a 0 -i 15 -k RTR
r -t 0.822296048 -s 14 -d -1 -p message -e 32 -c 2 -a 0 -i 15 -k RTR
r -t 0.822296128 -s 15 -d -1 -p message -e 32 -c 2 -a 0 -i 15 -k RTR
r -t 0.822296175 -s 2 -d -1 -p message -e 32 -c 2 -a 0 -i 15 -k RTR
+ -t 0.848147771 -s 17 -d -1 -p message -e 32 -c 2 -a 0 -i 16 -k RTR 
- -t 0.848147771 -s 17 -d -1 -p message -e 32 -c 2 -a 0 -i 16 -k RTR
h -t 0.848147771 -s 17 -d -1 -p message -e 32 -c 2 -a 0 -i 16 -k RTR
+ -t 0.848382771 -s 17 -d -1 -p message -e 90 -c 2 -a 0 -i 16 -k MAC 
- -t 0.848382771 -s 17 -d -1 -p message -e 90 -c 2 -a 0 -i 16 -k MAC
h -t 0.848382771 -s 17 -d -1 -p message -e 90 -c 2 -a 0 -i 16 -k MAC
r -t 0.849102952 -s 4 -d -1 -p message -e 32 -c 2 -a 0 -i 16 -k MAC
r -t 0.849103331 -s 2 -d -1 -p message -e 32 -c 2 -a 0 -i 16 -k MAC
r -t 0.849103648 -s 15 -d -1 -p message -e 32 -c 2 -a 0 -i 16 -k MAC
r -t 0.849103859 -s 0 -d -1 -p message -e 32 -c 2 -a 0 -i 16 -k MAC
r -t 0.849103906 -s 10 -d -1 -p message -e 32 -c 2 -a 0 -i 16 -k MAC
r -t 0.849104023 -s 24 -d -1 -p message -e 32 -c 2 -a 0 -i 16 -k MAC
r -t 0.849104026 -s 20 -d -1 -p message -e 32 -c 2 -a 0 -i 16 -k MAC
r -t 0.849127952 -s 4 -d -1 -p message -e 32 -c 2 -a 0 -i 16 -k RTR
r -t 0.849128331 -s 2 -d -1 -p message -e 32 -c 2 -a 0 -i 16 -k RTR
r -t 0.849128648 -s 15 -d -1 -p message -e 32 -c 2 -a 0 -i 16 -k RTR
r -t 0.849128859 -s 0 -d -1 -p message -e 32 -c 2 -a 0 -i 16 -k RTR
r -t 0.849128906 -s 10 -d -1 -p message -e 32 -c 2 -a 0 -i 16 -k RTR
r -t 0.849129023 -s 24 -d -1 -p message -e 32 -c 2 -a 0 -i 16 -k RTR
r -t 0.849129026 -s 20 -d -1 -p message -e 32 -c 2 -a 0 -i 16 -k RTR
+ -t 0.882674688 -s 4 -d -1 -p message -e 32 -c 2 -a 0 -i 17 -k RTR 
- -t 0.882674688 -s 4 -d -1 -p message -e 32 -c 2 -a 0 -i 17 -k RTR
h -t 0.882674688 -s 4 -d -1 -p message -e 32 -c 2 -a 0 -i 17 -k RTR
+ -t 0.882909688 -s 4 -d -1 -p message -e 90 -c 2 -a 0 -i 17 -k MAC 
- -t 0.882909688 -s 4 -d -1 -p message -e 90 -c 2 -a 0 -i 17 -k MAC
h -t 0.882909688 -s 4 -d -1 -p message -e 90 -c 2 -a 0 -i 17 -k MAC
r -t 0.883629868 -s 17 -d -1 -p message -e 32 -c 2 -a 0 -i 17 -k MAC
r -t 0.883630421 -s 2 -d -1 -p message -e 32 -c 2 -a 0 -i 17 -k MAC
r -t 0.883630654 -s 0 -d -1 -p message -e 32 -c 2 -a 0 -i 17 -k MAC
r -t 0.883630739 -s 15 -d -1 -p message -e 32 -c 2 -a 0 -i 17 -k MAC
r -t 0.883630760 -s 24 -d -1 -p message -e 32 -c 2 -a 0 -i 17 -k MAC
r -t 0.883630953 -s 10 -d -1 -p message -e 32 -c 2 -a 0 -i 17 -k MAC
r -t 0.883654868 -s 17 -d -1 -p message -e 32 -c 2 -a 0 -i 17 -k RTR
r -t 0.883655421 -s 2 -d -1 -p message -e 32 -c 2 -a 0 -i 17 -k RTR
r -t 0.883655654 -s 0 -d -1 -p message -e 32 -c 2 -a 0 -i 17 -k RTR
r -t 0.883655739 -s 15 -d -1 -p message -e 32 -c 2 -a 0 -i 17 -k RTR
r -t 0.883655760 -s 24 -d -1 -p message -e 32 -c 2 -a 0 -i 17 -k RTR
r -t 0.883655953 -s 10 -d -1 -p message -e 32 -c 2 -a 0 -i 17 -k RTR
+ -t 0.935449221 -s 25 -d -1 -p message -e 32 -c 2 -a 0 -i 18 -k RTR 
- -t 0.935449221 -s 25 -d -1 -p message -e 32 -c 2 -a 0 -i 18 -k RTR
h -t 0.935449221 -s 25 -d -1 -p message -e 32 -c 2 -a 0 -i 18 -k RTR
+ -t 0.935884221 -s 25 -d -1 -p message -e 90 -c 2 -a 0 -i 18 -k MAC 
- -t 0.935884221 -s 25 -d -1 -p message -e 90 -c 2 -a 0 -i 18 -k MAC
h -t 0.935884221 -s 25 -d -1 -p message -e 90 -c 2 -a 0 -i 18 -k MAC
r -t 0.936604422 -s 21 -d -1 -p message -e 32 -c 2 -a 0 -i 18 -k MAC
r -t 0.936604656 -s 12 -d -1 -p message -e 32 -c 2 -a 0 -i 18 -k MAC
r -t 0.936604738 -s 8 -d -1 -p message -e 32 -c 2 -a 0 -i 18 -k MAC
r -t 0.936604819 -s 7 -d -1 -p message -e 32 -c 2 -a 0 -i 18 -k MAC
r -t 0.936605173 -s 11 -d -1 -p message -e 32 -c 2 -a 0 -i 18 -k MAC
r -t 0.936605189 -s 9 -d -1 -p message -e 32 -c 2 -a 0 -i 18 -k MAC
r -t 0.936605458 -s 26 -d -1 -p message -e 32 -c 2 -a 0 -i 18 -k MAC
r -t 0.936629422 -s 21 -d -1 -p message -e 32 -c 2 -a 0 -i 18 -k RTR
r -t 0.936629656 -s 12 -d -1 -p message -e 32 -c 2 -a 0 -i 18 -k RTR
r -t 0.936629738 -s 8 -d -1 -p message -e 32 -c 2 -a 0 -i 18 -k RTR
r -t 0.936629819 -s 7 -d -1 -p message -e 32 -c 2 -a 0 -i 18 -k RTR
r -t 0.936630173 -s 11 -d -1 -p message -e 32 -c 2 -a 0 -i 18 -k RTR
r -t 0.936630189 -s 9 -d -1 -p message -e 32 -c 2 -a 0 -i 18 -k RTR
r -t 0.936630458 -s 26 -d -1 -p message -e 32 -c 2 -a 0 -i 18 -k RTR
+ -t 1.039009780 -s 24 -d -1 -p message -e 32 -c 2 -a 0 -i 19 -k RTR 
- -t 1.039009780 -s 24 -d -1 -p message -e 32 -c 2 -a 0 -i 19 -k RTR
h -t 1.039009780 -s 24 -d -1 -p message -e 32 -c 2 -a 0 -i 19 -k RTR
+ -t 1.039404780 -s 24 -d -1 -p message -e 90 -c 2 -a 0 -i 19 -k MAC 
- -t 1.039404780 -s 24 -d -1 -p message -e 90 -c 2 -a 0 -i 19 -k MAC
h -t 1.039404780 -s 24 -d -1 -p message -e 90 -c 2 -a 0 -i 19 -k MAC
r -t 1.040125801 -s 0 -d -1 -p message -e 32 -c 2 -a 0 -i 19 -k MAC
r -t 1.040125852 -s 4 -d -1 -p message -e 32 -c 2 -a 0 -i 19 -k MAC
r -t 1.040125874 -s 1 -d -1 -p message -e 32 -c 2 -a 0 -i 19 -k MAC
r -t 1.040126031 -s 17 -d -1 -p message -e 32 -c 2 -a 0 -i 19 -k MAC
r -t 1.040150801 -s 0 -d -1 -p message -e 32 -c 2 -a 0 -i 19 -k RTR
r -t 1.040150852 -s 4 -d -1 -p message -e 32 -c 2 -a 0 -i 19 -k RTR
r -t 1.040150874 -s 1 -d -1 -p message -e 32 -c 2 -a 0 -i 19 -k RTR
r -t 1.040151031 -s 17 -d -1 -p message -e 32 -c 2 -a 0 -i 19 -k RTR
+ -t 1.119657716 -s 1 -d -1 -p message -e 32 -c 2 -a 0 -i 20 -k RTR 
- -t 1.119657716 -s 1 -d -1 -p message -e 32 -c 2 -a 0 -i 20 -k RTR
h -t 1.119657716 -s 1 -d -1 -p message -e 32 -c 2 -a 0 -i 20 -k RTR
+ -t 1.119832716 -s 1 -d -1 -p message -e 90 -c 2 -a 0 -i 20 -k MAC 
- -t 1.119832716 -s 1 -d -1 -p message -e 90 -c 2 -a 0 -i 20 -k MAC
h -t 1.119832716 -s 1 -d -1 -p message -e 90 -c 2 -a 0 -i 20 -k MAC
r -t 1.120553455 -s 0 -d -1 -p message -e 32 -c 2 -a 0 -i 20 -k MAC
r -t 1.120553810 -s 24 -d -1 -p message -e 32 -c 2 -a 0 -i 20 -k MAC
r -t 1.120578455 -s 0 -d -1 -p message -e 32 -c 2 -a 0 -i 20 -k RTR
r -t 1.120578810 -s 24 -d -1 -p message -e 32 -c 2 -a 0 -i 20 -k RTR
+ -t 1.277890258 -s 9 -d -1 -p message -e 32 -c 2 -a 0 -i 21 -k RTR 
- -t 1.277890258 -s 9 -d -1 -p message -e 32 -c 2 -a 0 -i 21 -k RTR
h -t 1.277890258 -s 9 -d -1 -p message -e 32 -c 2 -a 0 -i 21 -k RTR
+ -t 1.278565258 -s 9 -d -1 -p message -e 90 -c 2 -a 0 -i 21 -k MAC 