n -t * -s 0  -x 386.73000000000002 -y 803.25999999999999 -Z 0 -z 100  -v circle -c black
n -t * -s 1  -x 236.66999999999999 -y 797.28999999999996 -Z 0 -z 100  -v circle -c black
n -t * -s 2  -x 694.75 -y 1035.79 -Z 0 -z 100  -v circle -c black
n -t * -s 3  -x 399.12 -y 196.90000000000001 -Z 0 -z 100  -v circle -c black
n -t * -s 4  -x 80.430000000000007 -y 841.73000000000002 -Z 0 -z 100  -v circle -c black
n -t * -s 5  -x 899.28999999999996 -y 526.5 -Z 0 -z 100  -v circle -c black
n -t * -s 6  -x 935.96000000000004 -y 914.98000000000002 -Z 0 -z 100  -v circle -c black
n -t * -s 7  -x 1139.1900000000001 -y 981.76999999999998 -Z 0 -z 100  -v circle -c black
n -t * -s 8  -x 1049.53 -y 795.66999999999996 -Z 0 -z 100  -v circle -c black
n -t * -s 9  -x 640.5 -y 1267.21 -Z 0 -z 100  -v circle -c black
n -t * -s 10  -x 402.16000000000003 -y 309.38999999999999 -Z 0 -z 100  -v circle -c black
n -t * -s 11  -x 1126.27 -y 545.97000000000003 -Z 0 -z 100  -v circle -c black
n -t * -s 12  -x 508.30000000000001 -y 869.74000000000001 -Z 0 -z 100  -v circle -c black
n -t * -s 13  -x 344.79000000000002 -y 284.58999999999997 -Z 0 -z 100  -v circle -c black
n -t * -s 14  -x 125.26000000000001 -y 1389.04 -Z 0 -z 100  -v circle -c black
n -t * -s 15  -x 480.22000000000003 -y 711.55999999999995 -Z 0 -z 100  -v circle -c black
n -t * -s 16  -x 98.620000000000005 -y 919.44000000000005 -Z 0 -z 100  -v circle -c black
n -t * -s 17  -x 473.41000000000003 -y 622.14999999999998 -Z 0 -z 100  -v circle -c black
n -t * -s 18  -x 981.75 -y 507.13 -Z 0 -z 100  -v circle -c black
n -t * -s 19  -x 696.71000000000004 -y 739.37 -Z 0 -z 100  -v circle -c black
n -t * -s 20  -x 727.05999999999995 -y 672.52999999999997 -Z 0 -z 100  -v circle -c black
n -t * -s 21  -x 452.73000000000002 -y 328.01999999999998 -Z 0 -z 100  -v circle -c black
n -t * -s 22  -x 72.769999999999996 -y 1028.6500000000001 -Z 0 -z 100  -v circle -c black
n -t * -s 23  -x 69.959999999999994 -y 1301.3399999999999 -Z 0 -z 100  -v circle -c black
n -t * -s 24  -x 236.06 -y 435.07999999999998 -Z 0 -z 100  -v circle -c black
n -t * -s 25  -x 0 -y 0 -Z 0 -z 100  -v circle -c black
n -t * -s 26  -x 0 -y 0 -Z 0 -z 100  -v circle -c black
n -t * -s 27  -x 0 -y 0 -Z 0 -z 100  -v circle -c black
n -t * -s 28  -x 0 -y 1000 -Z 0 -z 100  -v circle -c black
n -t * -s 29  -x 1000 -y 0 -Z 0 -z 100  -v circle -c black
V -t * -v 1.0a5 -a 0
W -t * -x 1700 -y 1700
A -t * -n 1 -p 0 -o 0x7fffffff -c 30 -a 1
A -t * -h 1 -m 1073741823 -s 0
n -t 0.000000 -s 0 -x 386.730000 -y 803.260000 -U 0.000000 -V 0.000000 -T 0.000000
n -t 0.000000 -s 1 -x 236.670000 -y 797.290000 -U 0.000000 -V 0.000000 -T 0.000000
n -t 0.000000 -s 2 -x 694.750000 -y 1035.790000 -U 0.000000 -V 0.000000 -T 0.000000
n -t 0.000000 -s 3 -x 399.120000 -y 196.900000 -U 0.000000 -V 0.000000 -T 0.000000
n -t 0.000000 -s 4 -x 80.430000 -y 841.730000 -U 0.000000 -V 0.000000 -T 0.000000
n -t 0.000000 -s 5 -x 899.290000 -y 526.500000 -U 0.000000 -V 0.000000 -T 0.000000
n -t 0.000000 -s 6 -x 935.960000 -y 914.980000 -U 0.000000 -V 0.000000 -T 0.000000
n -t 0.000000 -s 7 -x 1139.190000 -y 981.770000 -U 0.000000 -V 0.000000 -T 0.000000
n -t 0.000000 -s 8 -x 1049.530000 -y 795.670000 -U 0.000000 -V 0.000000 -T 0.000000
n -t 0.000000 -s 9 -x 640.500000 -y 1267.210000 -U 0.000000 -V 0.000000 -T 0.000000
n -t 0.000000 -s 10 -x 402.160000 -y 309.390000 -U 0.000000 -V 0.000000 -T 0.000000
n -t 0.000000 -s 11 -x 1126.270000 -y 545.970000 -U 0.000000 -V 0.000000 -T 0.000000
n -t 0.000000 -s 12 -x 508.300000 -y 869.740000 -U 0.000000 -V 0.000000 -T 0.000000
n -t 0.000000 -s 13 -x 344.790000 -y 284.590000 -U 0.000000 -V 0.000000 -T 0.000000
n -t 0.000000 -s 14 -x 125.260000 -y 1389.040000 -U 0.000000 -V 0.000000 -T 0.000000
n -t 0.000000 -s 15 -x 480.220000 -y 711.560000 -U 0.000000 -V 0.000000 -T 0.000000
n -t 0.000000 -s 16 -x 98.620000 -y 919.440000 -U 0.000000 -V 0.000000 -T 0.000000
n -t 0.000000 -s 17 -x 473.410000 -y 622.150000 -U 0.000000 -V 0.000000 -T 0.000000
n -t 0.000000 -s 18 -x 981.750000 -y 507.130000 -U 0.000000 -V 0.000000 -T 0.000000
n -t 0.000000 -s 19 -x 696.710000 -y 739.370000 -U 0.000000 -V 0.000000 -T 0.000000
n -t 0.000000 -s 20 -x 727.060000 -y 672.530000 -U 0.000000 -V 0.000000 -T 0.000000
n -t 0.000000 -s 21 -x 452.730000 -y 328.020000 -U 0.000000 -V 0.000000 -T 0.000000
n -t 0.000000 -s 22 -x 72.770000 -y 1028.650000 -U 0.000000 -V 0.000000 -T 0.000000
n -t 0.000000 -s 23 -x 69.960000 -y 1301.340000 -U 0.000000 -V 0.000000 -T 0.000000
n -t 0.000000 -s 24 -x 236.060000 -y 435.080000 -U 0.000000 -V 0.000000 -T 0.000000
n -t 0.000000 -s 0 -x 386.730000 -y 803.260000 -U 0.000000 -V 0.000000 -T 0.000000
n -t 0.000000 -s 1 -x 236.670000 -y 797.290000 -U 0.000000 -V 0.000000 -T 0.000000
+ -t 0.003091411 -s 0 -d -1 -p message -e 32 -c 2 -a 0 -i 0 -k RTR 
- -t 0.003091411 -s 0 -d -1 -p message -e 32 -c 2 -a 0 -i 0 -k RTR
h -t 0.003091411 -s 0 -d -1 -p message -e 32 -c 2 -a 0 -i 0 -k RTR
+ -t 0.003466411 -s 0 -d -1 -p message -e 90 -c 2 -a 0 -i 0 -k MAC 
- -t 0.003466411 -s 0 -d -1 -p message -e 90 -c 2 -a 0 -i 0 -k MAC
h -t 0.003466411 -s 0 -d -1 -p message -e 90 -c 2 -a 0 -i 0 -k MAC
r -t 0.004186847 -s 15 -d -1 -p message -e 32 -c 2 -a 0 -i 0 -k MAC
r -t 0.004186873 -s 12 -d -1 -p message -e 32 -c 2 -a 0 -i 0 -k MAC
r -t 0.004186911 -s 1 -d -1 -p message -e 32 -c 2 -a 0 -i 0 -k MAC
r -t 0.004187080 -s 17 -d -1 -p message -e 32 -c 2 -a 0 -i 0 -k MAC
r -t 0.004187440 -s 4 -d -1 -p message -e 32 -c 2 -a 0 -i 0 -k MAC
r -t 0.004187446 -s 16 -d -1 -p message -e 32 -c 2 -a 0 -i 0 -k MAC
r -t 0.004187466 -s 19 -d -1 -p message -e 32 -c 2 -a 0 -i 0 -k MAC
r -t 0.004187626 -s 20 -d -1 -p message -e 32 -c 2 -a 0 -i 0 -k MAC
r -t 0.004187697 -s 2 -d -1 -p message -e 32 -c 2 -a 0 -i 0 -k MAC
r -t 0.004187699 -s 22 -d -1 -p message -e 32 -c 2 -a 0 -i 0 -k MAC
r -t 0.004187737 -s 24 -d -1 -p message -e 32 -c 2 -a 0 -i 0 -k MAC
r -t 0.004211847 -s 15 -d -1 -p message -e 32 -c 2 -a 0 -i 0 -k RTR
r -t 0.004211873 -s 12 -d -1 -p message -e 32 -c 2 -a 0 -i 0 -k RTR
r -t 0.004211911 -s 1 -d -1 -p message -e 32 -c 2 -a 0 -i 0 -k RTR
r -t 0.004212080 -s 17 -d -1 -p message -e 32 -c 2 -a 0 -i 0 -k RTR
r -t 0.004212440 -s 4 -d -1 -p message -e 32 -c 2 -a 0 -i 0 -k RTR
r -t 0.004212446 -s 16 -d -1 -p message -e 32 -c 2 -a 0 -i 0 -k RTR
r -t 0.004212466 -s 19 -d -1 -p message -e 32 -c 2 -a 0 -i 0 -k RTR
r -t 0.004212626 -s 20 -d -1 -p message -e 32 -c 2 -a 0 -i 0 -k RTR
r -t 0.004212697 -s 2 -d -1 -p message -e 32 -c 2 -a 0 -i 0 -k RTR
r -t 0.004212699 -s 22 -d -1 -p message -e 32 -c 2 -a 0 -i 0 -k RTR
r -t 0.004212737 -s 24 -d -1 -p message -e 32 -c 2 -a 0 -i 0 -k RTR
+ -t 0.037458776 -s 2 -d -1 -p message -e 32 -c 2 -a 0 -i 1 -k RTR 
- -t 0.037458776 -s 2 -d -1 -p message -e 32 -c 2 -a 0 -i 1 -k RTR
h -t 0.037458776 -s 2 -d -1 -p message -e 32 -c 2 -a 0 -i 1 -k RTR
+ -t 0.037813776 -s 2 -d -1 -p message -e 90 -c 2 -a 0 -i 1 -k MAC 
- -t 0.037813776 -s 2 -d -1 -p message -e 90 -c 2 -a 0 -i 1 -k MAC
h -t 0.037813776 -s 2 -d -1 -p message -e 90 -c 2 -a 0 -i 1 -k MAC
r -t 0.038534568 -s 9 -d -1 -p message -e 32 -c 2 -a 0 -i 1 -k MAC
r -t 0.038534608 -s 12 -d -1 -p message -e 32 -c 2 -a 0 -i 1 -k MAC
r -t 0.038534675 -s 6 -d -1 -p message -e 32 -c 2 -a 0 -i 1 -k MAC
r -t 0.038534764 -s 19 -d -1 -p message -e 32 -c 2 -a 0 -i 1 -k MAC
r -t 0.038534992 -s 20 -d -1 -p message -e 32 -c 2 -a 0 -i 1 -k MAC
r -t 0.038535062 -s 0 -d -1 -p message -e 32 -c 2 -a 0 -i 1 -k MAC
r -t 0.038535072 -s 15 -d -1 -p message -e 32 -c 2 -a 0 -i 1 -k MAC
r -t 0.038559568 -s 9 -d -1 -p message -e 32 -c 2 -a 0 -i 1 -k RTR
r -t 0.038559608 -s 12 -d -1 -p message -e 32 -c 2 -a 0 -i 1 -k RTR
r -t 0.038559675 -s 6 -d -1 -p message -e 32 -c 2 -a 0 -i 1 -k RTR
r -t 0.038559764 -s 19 -d -1 -p message -e 32 -c 2 -a 0 -i 1 -k RTR
r -t 0.038559992 -s 20 -d -1 -p message -e 32 -c 2 -a 0 -i 1 -k RTR
r -t 0.038560062 -s 0 -d -1 -p message -e 32 -c 2 -a 0 -i 1 -k RTR
r -t 0.038560072 -s 15 -d -1 -p message -e 32 -c 2 -a 0 -i 1 -k RTR
+ -t 0.087462768 -s 13 -d -1 -p message -e 32 -c 2 -a 0 -i 2 -k RTR 
- -t 0.087462768 -s 13 -d -1 -p message -e 32 -c 2 -a 0 -i 2 -k RTR
h -t 0.087462768 -s 13 -d -1 -p message -e 32 -c 2 -a 0 -i 2 -k RTR
+ -t 0.087757768 -s 13 -d -1 -p message -e 90 -c 2 -a 0 -i 2 -k MAC 
- -t 0.087757768 -s 13 -d -1 -p message -e 90 -c 2 -a 0 -i 2 -k MAC
h -t 0.087757768 -s 13 -d -1 -p message -e 90 -c 2 -a 0 -i 2 -k MAC
r -t 0.088477976 -s 10 -d -1 -p message -e 32 -c 2 -a 0 -i 2 -k MAC
r -t 0.088478112 -s 3 -d -1 -p message -e 32 -c 2 -a 0 -i 2 -k MAC
r -t 0.088478156 -s 21 -d -1 -p message -e 32 -c 2 -a 0 -i 2 -k MAC
r -t 0.088478387 -s 24 -d -1 -p message -e 32 -c 2 -a 0 -i 2 -k MAC
r -t 0.088478972 -s 17 -d -1 -p message -e 32 -c 2 -a 0 -i 2 -k MAC
r -t 0.088502976 -s 10 -d -1 -p message -e 32 -c 2 -a 0 -i 2 -k RTR
r -t 0.088503112 -s 3 -d -1 -p message -e 32 -c 2 -a 0 -i 2 -k RTR
r -t 0.088503156 -s 21 -d -1 -p message -e 32 -c 2 -a 0 -i 2 -k RTR
r -t 0.088503387 -s 24 -d -1 -p message -e 32 -c 2 -a 0 -i 2 -k RTR
r -t 0.088503972 -s 17 -d -1 -p message -e 32 -c 2 -a 0 -i 2 -k RTR
+ -t 0.177365656 -s 3 -d -1 -p message -e 32 -c 2 -a 0 -i 3 -k RTR 
- -t 0.177365656 -s 3 -d -1 -p message -e 32 -c 2 -a 0 -i 3 -k RTR
h -t 0.177365656 -s 3 -d -1 -p message -e 32 -c 2 -a 0 -i 3 -k RTR
+ -t 0.177560656 -s 3 -d -1 -p message -e 90 -c 2 -a 0 -i 3 -k MAC 
- -t 0.177560656 -s 3 -d -1 -p message -e 90 -c 2 -a 0 -i 3 -k MAC
h -t 0.177560656 -s 3 -d -1 -p message -e 90 -c 2 -a 0 -i 3 -k MAC
r -t 0.178281000 -s 13 -d -1 -p message -e 32 -c 2 -a 0 -i 3 -k MAC
r -t 0.178281031 -s 10 -d -1 -p message -e 32 -c 2 -a 0 -i 3 -k MAC
r -t 0.178281128 -s 21 -d -1 -p message -e 32 -c 2 -a 0 -i 3 -k MAC
r -t 0.178281618 -s 24 -d -1 -p message -e 32 -c 2 -a 0 -i 3 -k MAC
r -t 0.178306000 -s 13 -d -1 -p message -e 32 -c 2 -a 0 -i 3 -k RTR
r -t 0.178306031 -s 10 -d -1 -p message -e 32 -c 2 -a 0 -i 3 -k RTR
r -t 0.178306128 -s 21 -d -1 -p message -e 32 -c 2 -a 0 -i 3 -k RTR
r -t 0.178306618 -s 24 -d -1 -p message -e 32 -c 2 -a 0 -i 3 -k RTR
+ -t 0.191634337 -s 19 -d -1 -p message -e 32 -c 2 -a 0 -i 4 -k RTR 
- -t 0.191634337 -s 19 -d -1 -p message -e 32 -c 2 -a 0 -i 4 -k RTR
h -t 0.191634337 -s 19 -d -1 -p message -e 32 -c 2 -a 0 -i 4 -k RTR
+ -t 0.191889337 -s 19 -d -1 -p message -e 90 -c 2 -a 0 -i 4 -k MAC 
- -t 0.191889337 -s 19 -d -1 -p message -e 90 -c 2 -a 0 -i 4 -k MAC
h -t 0.191889337 -s 19 -d -1 -p message -e 90 -c 2 -a 0 -i 4 -k MAC
r -t 0.192609581 -s 20 -d -1 -p message -e 32 -c 2 -a 0 -i 4 -k MAC
r -t 0.192610064 -s 15 -d -1 -p message -e 32 -c 2 -a 0 -i 4 -k MAC
r -t 0.192610100 -s 12 -d -1 -p message -e 32 -c 2 -a 0 -i 4 -k MAC
r -t 0.192610177 -s 17 -d -1 -p message -e 32 -c 2 -a 0 -i 4 -k MAC
r -t 0.192610316 -s 5 -d -1 -p message -e 32 -c 2 -a 0 -i 4 -k MAC
r -t 0.192610325 -s 2 -d -1 -p message -e 32 -c 2 -a 0 -i 4 -k MAC
r -t 0.192610326 -s 6 -d -1 -p message -e 32 -c 2 -a 0 -i 4 -k MAC
r -t 0.192610392 -s 0 -d -1 -p message -e 32 -c 2 -a 0 -i 4 -k MAC
r -t 0.192610528 -s 8 -d -1 -p message -e 32 -c 2 -a 0 -i 4 -k MAC
r -t 0.192610562 -s 18 -d -1 -p message -e 32 -c 2 -a 0 -i 4 -k MAC
r -t 0.192634581 -s 20 -d -1 -p message -e 32 -c 2 -a 0 -i 4 -k RTR
r -t 0.192635064 -s 15 -d -1 -p message -e 32 -c 2 -a 0 -i 4 -k RTR
r -t 0.192635100 -s 12 -d -1 -p message -e 32 -c 2 -a 0 -i 4 -k RTR
r -t 0.192635177 -s 17 -d -1 -p message -e 32 -c 2 -a 0 -i 4 -k RTR
r -t 0.192635316 -s 5 -d -1 -p message -e 32 -c 2 -a 0 -i 4 -k RTR
r -t 0.192635325 -s 2 -d -1 -p message -e 32 -c 2 -a 0 -i 4 -k RTR
r -t 0.192635326 -s 6 -d -1 -p message -e 32 -c 2 -a 0 -i 4 -k RTR
r -t 0.192635392 -s 0 -d -1 -p message -e 32 -c 2 -a 0 -i 4 -k RTR
r -t 0.192635528 -s 8 -d -1 -p message -e 32 -c 2 -a 0 -i 4 -k RTR
r -t 0.192635562 -s 18 -d -1 -p message -e 32 -c 2 -a 0 -i 4 -k RTR
+ -t 0.234603229 -s 15 -d -1 -p message -e 32 -c 2 -a 0 -i 5 -k RTR 
- -t 0.234603229 -s 15 -d -1 -p message -e 32 -c 2 -a 0 -i 5 -k RTR
h -t 0.234603229 -s 15 -d -1 -p message -e 32 -c 2 -a 0 -i 5 -k RTR
+ -t 0.234898229 -s 15 -d -1 -p message -e 90 -c 2 -a 0 -i 5 -k MAC 
- -t 0.234898229 -s 15 -d -1 -p message -e 90 -c 2 -a 0 -i 5 -k MAC
h -t 0.234898229 -s 15 -d -1 -p message -e 90 -c 2 -a 0 -i 5 -k MAC
r -t 0.235618528 -s 17 -d -1 -p message -e 32 -c 2 -a 0 -i 5 -k MAC
r -t 0.235618666 -s 0 -d -1 -p message -e 32 -c 2 -a 0 -i 5 -k MAC
r -t 0.235618765 -s 12 -d -1 -p message -e 32 -c 2 -a 0 -i 5 -k MAC
r -t 0.235618957 -s 19 -d -1 -p message -e 32 -c 2 -a 0 -i 5 -k MAC
r -t 0.235619062 -s 20 -d -1 -p message -e 32 -c 2 -a 0 -i 5 -k MAC
r -t 0.235619090 -s 1 -d -1 -p message -e 32 -c 2 -a 0 -i 5 -k MAC
r -t 0.235619459 -s 24 -d -1 -p message -e 32 -c 2 -a 0 -i 5 -k MAC
r -t 0.235619511 -s 21 -d -1 -p message -e 32 -c 2 -a 0 -i 5 -k MAC
r -t 0.235619525 -s 2 -d -1 -p message -e 32 -c 2 -a 0 -i 5 -k MAC
r -t 0.235643528 -s 17 -d -1 -p message -e 32 -c 2 -a 0 -i 5 -k RTR
r -t 0.235643666 -s 0 -d -1 -p message -e 32 -c 2 -a 0 -i 5 -k RTR
r -t 0.235643765 -s 12 -d -1 -p message -e 32 -c 2 -a 0 -i 5 -k RTR
r -t 0.235643957 -s 19 -d -1 -p message -e 32 -c 2 -a 0 -i 5 -k RTR
r -t 0.235644062 -s 20 -d -1 -p message -e 32 -c 2 -a 0 -i 5 -k RTR
r -t 0.235644090 -s 1 -d -1 -p message -e 32 -c 2 -a 0 -i 5 -k RTR
r -t 0.235644459 -s 24 -d -1 -p message -e 32 -c 2 -a 0 -i 5 -k RTR
r -t 0.235644511 -s 21 -d -1 -p message -e 32 -c 2 -a 0 -i 5 -k RTR
r -t 0.235644525 -s 2 -d -1 -p message -e 32 -c 2 -a 0 -i 5 -k RTR
+ -t 0.333839210 -s 12 -d -1 -p message -e 32 -c 2 -a 0 -i 6 -k RTR 
- -t 0.333839210 -s 12 -d -1 -p message -e 32 -c 2 -a 0 -i 6 -k RTR
h -t 0.333839210 -s 12 -d -1 -p message -e 32 -c 2 -a 0 -i 6 -k RTR
+ -t 0.333994210 -s 12 -d -1 -p message -e 90 -c 2 -a 0 -i 6 -k MAC 
- -t 0.333994210 -s 12 -d -1 -p message -e 90 -c 2 -a 0 -i 6 -k MAC
h -t 0.333994210 -s 12 -d -1 -p message -e 90 -c 2 -a 0 -i 6 -k MAC
r -t 0.334714672 -s 0 -d -1 -p message -e 32 -c 2 -a 0 -i 6 -k MAC
r -t 0.334714745 -s 15 -d -1 -p message -e 32 -c 2 -a 0 -i 6 -k MAC
r -t 0.334714974 -s 19 -d -1 -p message -e 32 -c 2 -a 0 -i 6 -k MAC
r -t 0.334715042 -s 2 -d -1 -p message -e 32 -c 2 -a 0 -i 6 -k MAC
r -t 0.334715043 -s 17 -d -1 -p message -e 32 -c 2 -a 0 -i 6 -k MAC
r -t 0.334715147 -s 1 -d -1 -p message -e 32 -c 2 -a 0 -i 6 -k MAC
r -t 0.334715192 -s 20 -d -1 -p message -e 32 -c 2 -a 0 -i 6 -k MAC
r -t 0.334739672 -s 0 -d -1 -p message -e 32 -c 2 -a 0 -i 6 -k RTR
r -t 0.334739745 -s 15 -d -1 -p message -e 32 -c 2 -a 0 -i 6 -k RTR
r -t 0.334739974 -s 19 -d -1 -p message -e 32 -c 2 -a 0 -i 6 -k RTR
r -t 0.334740042 -s 2 -d -1 -p message -e 32 -c 2 -a 0 -i 6 -k RTR
r -t 0.334740043 -s 17 -d -1 -p message -e 32 -c 2 -a 0 -i 6 -k RTR
r -t 0.334740147 -s 1 -d -1 -p message -e 32 -c 2 -a 0 -i 6 -k RTR
r -t 0.334740192 -s 20 -d -1 -p message -e 32 -c 2 -a 0 -i 6 -k RTR
+ -t 0.351472650 -s 18 -d -1 -p message -e 32 -c 2 -a 0 -i 7 -k RTR 
- -t 0.351472650 -s 18 -d -1 -p message -e 32 -c 2 -a 0 -i 7 -k RTR
h -t 0.351472650 -s 18 -d -1 -p message -e 32 -c 2 -a 0 -i 7 -k RTR
+ -t 0.351847650 -s 18 -d -1 -p message -e 90 -c 2 -a 0 -i 7 -k MAC 
- -t 0.351847650 -s 18 -d -1 -p message -e 90 -c 2 -a 0 -i 7 -k MAC
h -t 0.351847650 -s 18 -d -1 -p message -e 90 -c 2 -a 0 -i 7 -k MAC
r -t 0.352567933 -s 5 -d -1 -p message -e 32 -c 2 -a 0 -i 7 -k MAC
r -t 0.352568149 -s 11 -d -1 -p message -e 32 -c 2 -a 0 -i 7 -k MAC
r -t 0.352568638 -s 8 -d -1 -p message -e 32 -c 2 -a 0 -i 7 -k MAC
r -t 0.352568662 -s 20 -d -1 -p message -e 32 -c 2 -a 0 -i 7 -k MAC
r -t 0.352568876 -s 19 -d -1 -p message -e 32 -c 2 -a 0 -i 7 -k MAC
r -t 0.352592933 -s 5 -d -1 -p message -e 32 -c 2 -a 0 -i 7 -k RTR
r -t 0.352593149 -s 11 -d -1 -p message -e 32 -c 2 -a 0 -i 7 -k RTR
r -t 0.352593638 -s 8 -d -1 -p message -e 32 -c 2 -a 0 -i 7 -k RTR
r -t 0.352593662 -s 20 -d -1 -p message -e 32 -c 2 -a 0 -i 7 -k RTR
r -t 0.352593876 -s 19 -d -1 -p message -e 32 -c 2 -a 0 -i 7 -k RTR
+ -t 0.436386259 -s 29 -d -1 -p message -e 32 -c 2 -a 0 -i 8 -k RTR 
- -t 0.436386259 -s 29 -d -1 -p message -e 32 -c 2 -a 0 -i 8 -k RTR
h -t 0.436386259 -s 29 -d -1 -p message -e 32 -c 2 -a 0 -i 8 -k RTR
+ -t 0.436701259 -s 29 -d -1 -p message -e 90 -c 2 -a 0 -i 8 -k MAC 
- -t 0.436701259 -s 29 -d -1 -p message -e 90 -c 2 -a 0 -i 8 -k MAC
h -t 0.436701259 -s 29 -d -1 -p message -e 90 -c 2 -a 0 -i 8 -k MAC
+ -t 0.470117073 -s 8 -d -1 -p message -e 32 -c 2 -a 0 -i 9 -k RTR 
- -t 0.470117073 -s 8 -d -1 -p message -e 32 -c 2 -a 0 -i 9 -k RTR
h -t 0.470117073 -s 8 -d -1 -p message -e 32 -c 2 -a 0 -i 9 -k RTR
+ -t 0.470652073 -s 8 -d -1 -p message -e 90 -c 2 -a 0 -i 9 -k MAC 
- -t 0.470652073 -s 8 -d -1 -p message -e 90 -c 2 -a 0 -i 9 -k MAC
h -t 0.470652073 -s 8 -d -1 -p message -e 90 -c 2 -a 0 -i 9 -k MAC
r -t 0.471372622 -s 6 -d -1 -p message -e 32 -c 2 -a 0 -i 9 -k MAC
r -t 0.471372761 -s 7 -d -1 -p message -e 32 -c 2 -a 0 -i 9 -k MAC
r -t 0.471372944 -s 11 -d -1 -p message -e 32 -c 2 -a 0 -i 9 -k MAC
r -t 0.471373061 -s 18 -d -1 -p message -e 32 -c 2 -a 0 -i 9 -k MAC
r -t 0.471373100 -s 5 -d -1 -p message -e 32 -c 2 -a 0 -i 9 -k MAC
r -t 0.471373223 -s 20 -d -1 -p message -e 32 -c 2 -a 0 -i 9 -k MAC
r -t 0.471373264 -s 19 -d -1 -p message -e 32 -c 2 -a 0 -i 9 -k MAC
r -t 0.471397622 -s 6 -d -1 -p message -e 32 -c 2 -a 0 -i 9 -k RTR
r -t 0.471397761 -s 7 -d -1 -p message -e 32 -c 2 -a 0 -i 9 -k RTR
r -t 0.471397944 -s 11 -d -1 -p message -e 32 -c 2 -a 0 -i 9 -k RTR
r -t 0.471398061 -s 18 -d -1 -p message -e 32 -c 2 -a 0 -i 9 -k RTR
r -t 0.471398100 -s 5 -d -1 -p message -e 32 -c 2 -a 0 -i 9 -k RTR
r -t 0.471398223 -s 20 -d -1 -p message -e 32 -c 2 -a 0 -i 9 -k RTR
r -t 0.471398264 -s 19 -d -1 -p message -e 32 -c 2 -a 0 -i 9 -k RTR
+ -t 0.521504883 -s 22 -d -1 -p message -e 32 -c 2 -a 0 -i 10 -k RTR 
- -t 0.521504883 -s 22 -d -1 -p message -e 32 -c 2 -a 0 -i 10 -k RTR
h -t 0.521504883 -s 22 -d -1 -p message -e 32 -c 2 -a 0 -i 10 -k RTR
+ -t 0.521659883 -s 22 -d -1 -p message -e 90 -c 2 -a 0 -i 10 -k MAC 
- -t 0.521659883 -s 22 -d -1 -p message -e 90 -c 2 -a 0 -i 10 -k MAC
h -t 0.521659883 -s 22 -d -1 -p message -e 90 -c 2 -a 0 -i 10 -k MAC
r -t 0.522380144 -s 28 -d -1 -p message -e 32 -c 2 -a 0 -i 10 -k MAC
r -t 0.522380257 -s 16 -d -1 -p message -e 32 -c 2 -a 0 -i 10 -k MAC
r -t 0.522380507 -s 4 -d -1 -p message -e 32 -c 2 -a 0 -i 10 -k MAC
r -t 0.522380792 -s 23 -d -1 -p message -e 32 -c 2 -a 0 -i 10 -k MAC
r -t 0.522380828 -s 1 -d -1 -p message -e 32 -c 2 -a 0 -i 10 -k MAC
r -t 0.522381097 -s 14 -d -1 -p message -e 32 -c 2 -a 0 -i 10 -k MAC
r -t 0.522381171 -s 0 -d -1 -p message -e 32 -c 2 -a 0 -i 10 -k MAC
r -t 0.522405144 -s 28 -d -1 -p message -e 32 -c 2 -a 0 -i 10 -k RTR
r -t 0.522405257 -s 16 -d -1 -p message -e 32 -c 2 -a 0 -i 10 -k RTR
r -t 0.522405507 -s 4 -d -1 -p message -e 32 -c 2 -a 0 -i 10 -k RTR
r -t 0.522405792 -s 23 -d -1 -p message -e 32 -c 2 -a 0 -i 10 -k RTR
r -t 0.522405828 -s 1 -d -1 -p message -e 32 -c 2 -a 0 -i 10 -k RTR
r -t 0.522406097 -s 14 -d -1 -p message -e 32 -c 2 -a 0 -i 10 -k RTR
r -t 0.522406171 -s 0 -d -1 -p message -e 32 -c 2 -a 0 -i 10 -k RTR
+ -t 0.556838879 -s 28 -d -1 -p cbr -e 512 -c 2 -a 0 -i 11 -k AGT 
- -t 0.556838879 -s 28 -d -1 -p cbr -e 512 -c 2 -a 0 -i 11 -k AGT
h -t 0.556838879 -s 28 -d -1 -p cbr -e 512 -c 2 -a 0 -i 11 -k AGT
+ -t 0.627186592 -s 10 -d -1 -p message -e 32 -c 2 -a 0 -i 12 -k RTR 
- -t 0.627186592 -s 10 -d -1 -p message -e 32 -c 2 -a 0 -i 12 -k RTR
h -t 0.627186592 -s 10 -d -1 -p message -e 32 -c 2 -a 0 -i 12 -k RTR
+ -t 0.627321592 -s 10 -d -1 -p message -e 90 -c 2 -a 0 -i 12 -k MAC 
- -t 0.627321592 -s 10 -d -1 -p message -e 90 -c 2 -a 0 -i 12 -k MAC
h -t 0.627321592 -s 10 -d -1 -p message -e 90 -c 2 -a 0 -i 12 -k MAC
r -t 0.628041772 -s 21 -d -1 -p message -e 32 -c 2 -a 0 -i 12 -k MAC
r -t 0.628041800 -s 13 -d -1 -p message -e 32 -c 2 -a 0 -i 12 -k MAC
r -t 0.628041967 -s 3 -d -1 -p message -e 32 -c 2 -a 0 -i 12 -k MAC
r -t 0.628042286 -s 24 -d -1 -p message -e 32 -c 2 -a 0 -i 12 -k MAC
r -t 0.628042661 -s 17 -d -1 -p message -e 32 -c 2 -a 0 -i 12 -k MAC
r -t 0.628066772 -s 21 -d -1 -p message -e 32 -c 2 -a 0 -i 12 -k RTR
r -t 0.628066800 -s 13 -d -1 -p message -e 32 -c 2 -a 0 -i 12 -k RTR
r -t 0.628066967 -s 3 -d -1 -p message -e 32 -c 2 -a 0 -i 12 -k RTR
r -t 0.628067286 -s 24 -d -1 -p message -e 32 -c 2 -a 0 -i 12 -k RTR
r -t 0.628067661 -s 17 -d -1 -p message -e 32 -c 2 -a 0 -i 12 -k RTR
+ -t 0.634670006 -s 6 -d -1 -p message -e 32 -c 2 -a 0 -i 13 -k RTR 
- -t 0.634670006 -s 6 -d -1 -p message -e 32 -c 2 -a 0 -i 13 -k RTR
h -t 0.634670006 -s 6 -d -1 -p message -e 32 -c 2 -a 0 -i 13 -k RTR
+ -t 0.634865006 -s 6 -d -1 -p message -e 90 -c 2 -a 0 -i 13 -k MAC 
- -t 0.634865006 -s 6 -d -1 -p message -e 90 -c 2 -a 0 -i 13 -k MAC
h -t 0.634865006 -s 6 -d -1 -p message -e 90 -c 2 -a 0 -i 13 -k MAC
r -t 0.635585555 -s 8 -d -1 -p message -e 32 -c 2 -a 0 -i 13 -k MAC
r -t 0.635585719 -s 7 -d -1 -p message -e 32 -c 2 -a 0 -i 13 -k MAC
r -t 0.635585906 -s 2 -d -1 -p message -e 32 -c 2 -a 0 -i 13 -k MAC
r -t 0.635585996 -s 19 -d -1 -p message -e 32 -c 2 -a 0 -i 13 -k MAC
r -t 0.635586073 -s 20 -d -1 -p message -e 32 -c 2 -a 0 -i 13 -k MAC
r -t 0.635586307 -s 5 -d -1 -p message -e 32 -c 2 -a 0 -i 13 -k MAC
r -t 0.635610555 -s 8 -d -1 -p message -e 32 -c 2 -a 0 -i 13 -k RTR
r -t 0.635610719 -s 7 -d -1 -p message -e 32 -c 2 -a 0 -i 13 -k RTR
r -t 0.635610906 -s 2 -d -1 -p message -e 32 -c 2 -a 0 -i 13 -k RTR
r -t 0.635610996 -s 19 -d -1 -p message -e 32 -c 2 -a 0 -i 13 -k RTR
r -t 0.635611073 -s 20 -d -1 -p message -e 32 -c 2 -a 0 -i 13 -k RTR
r -t 0.635611307 -s 5 -d -1 -p message -e 32 -c 2 -a 0 -i 13 -k RTR
+ -t 0.705637875 -s 21 -d -1 -p message -e 32 -c 2 -a 0 -i 14 -k RTR 
- -t 0.705637875 -s 21 -d -1 -p message -e 32 -c 2 -a 0 -i 14 -k RTR
h -t 0.705637875 -s 21 -d -1 -p message -e 32 -c 2 -a 0 -i 14 -k RTR
+ -t 0.706012875 -s 21 -d -1 -p message -e 90 -c 2 -a 0 -i 14 -k MAC 
- -t 0.706012875 -s 21 -d -1 -p message -e 90 -c 2 -a 0 -i 14 -k MAC
h -t 0.706012875 -s 21 -d -1 -p message -e 90 -c 2 -a 0 -i 14 -k MAC
r -t 0.706733054 -s 10 -d -1 -p message -e 32 -c 2 -a 0 -i 14 -k MAC
r -t 0.706733262 -s 13 -d -1 -p message -e 32 -c 2 -a 0 -i 14 -k MAC
r -t 0.706733347 -s 3 -d -1 -p message -e 32 -c 2 -a 0 -i 14 -k MAC
r -t 0.706733680 -s 24 -d -1 -p message -e 32 -c 2 -a 0 -i 14 -k MAC
r -t 0.706733857 -s 17 -d -1 -p message -e 32 -c 2 -a 0 -i 14 -k MAC
r -t 0.706734156 -s 15 -d -1 -p message -e 32 -c 2 -a 0 -i 14 -k MAC
r -t 0.706758054 -s 10 -d -1 -p message -e 32 -c 2 -a 0 -i 14 -k RTR
r -t 0.706758262 -s 13 -d -1 -p message -e 32 -c 2 -a 0 -i 14 -k RTR
r -t 0.706758347 -s 3 -d -1 -p message -e 32 -c 2 -a 0 -i 14 -k RTR
r -t 0.706758680 -s 24 -d -1 -p message -e 32 -c 2 -a 0 -i 14 -k RTR
r -t 0.706758857 -s 17 -d -1 -p message -e 32 -c 2 -a 0 -i 14 -k RTR
r -t 0.706759156 -s 15 -d -1 -p message -e 32 -c 2 -a 0 -i 14 -k RTR
+ -t 0.821435127 -s 23 -d -1 -p message -e 32 -c 2 -a 0 -i 15 -k RTR 
- -t 0.821435127 -s 23 -d -1 -p message -e 32 -c 2 -a 0 -i 15 -k RTR
h -t 0.821435127 -s 23 -d -1 -p message -e 32 -c 2 -a 0 -i 15 -k RTR
+ -t 0.821550127 -s 23 -d -1 -p message -e 90 -c 2 -a 0 -i 15 -k MAC 
- -t 0.821550127 -s 23 -d -1 -p message -e 90 -c 2 -a 0 -i 15 -k MAC
h -t 0.821550127 -s 23 -d -1 -p message -e 90 -c 2 -a 0 -i 15 -k MAC
r -t 0.822270473 -s 14 -d -1 -p message -e 32 -c 2 -a 0 -i 15 -k MAC
r -t 0.822271036 -s 22 -d -1 -p message -e 32 -c 2 -a 0 -i 15 -k MAC
r -t 0.822271158 -s 28 -d -1 -p message -e 32 -c 2 -a 0 -i 15 -k MAC
r -t 0.822271404 -s 16 -d -1 -p message -e 32 -c 2 -a 0 -i 15 -k MAC
r -t 0.822295473 -s 14 -d -1 -p message -e 32 -c 2 -a 0 -i 15 -k RTR
r -t 0.822296036 -s 22 -d -1 -p message -e 32 -c 2 -a 0 -i 15 -k RTR
r -t 0.822296158 -s 28 -d -1 -p message -e 32 -c 2 -a 0 -i 15 -k RTR
r -t 0.822296404 -s 16 -d -1 -p message -e 32 -c 2 -a 0 -i 15 -k RTR
+ -t 0.848147771 -s 17 -d -1 -p message -e 32 -c 2 -a 0 -i 16 -k RTR 
- -t 0.848147771 -s 17 -d -1 -p message -e 32 -c 2 -a 0 -i 16 -k RTR
h -t 0.848147771 -s 17 -d -1 -p message -e 32 -c 2 -a 0 -i 16 -k RTR
+ -t 0.848382771 -s 17 -d -1 -p message -e 90 -c 2 -a 0 -i 16 -k MAC 
- -t 0.848382771 -s 17 -d -1 -p message -e 90 -c 2 -a 0 -i 16 -k MAC
h -t 0.848382771 -s 17 -d -1 -p message -e 90 -c 2 -a 0 -i 16 -k MAC
r -t 0.849103070 -s 15 -d -1 -p message -e 32 -c 2 -a 0 -i 16 -k MAC
r -t 0.849103441 -s 0 -d -1 -p message -e 32 -c 2 -a 0 -i 16 -k MAC
r -t 0.849103605 -s 12 -d -1 -p message -e 32 -c 2 -a 0 -i 16 -k MAC
r -t 0.849103612 -s 19 -d -1 -p message -e 32 -c 2 -a 0 -i 16 -k MAC
r -t 0.849103634 -s 20 -d -1 -p message -e 32 -c 2 -a 0 -i 16 -k MAC
r -t 0.849103753 -s 1 -d -1 -p message -e 32 -c 2 -a 0 -i 16 -k MAC
r -t 0.849103754 -s 21 -d -1 -p message -e 32 -c 2 -a 0 -i 16 -k MAC
r -t 0.849103779 -s 24 -d -1 -p message -e 32 -c 2 -a 0 -i 16 -k MAC
r -t 0.849103841 -s 10 -d -1 -p message -e 32 -c 2 -a 0 -i 16 -k MAC
r -t 0.849103976 -s 13 -d -1 -p message -e 32 -c 2 -a 0 -i 16 -k MAC
r -t 0.849128070 -s 15 -d -1 -p message -e 32 -c 2 -a 0 -i 16 -k RTR
r -t 0.849128441 -s 0 -d -1 -p message -e 32 -c 2 -a 0 -i 16 -k RTR
r -t 0.849128605 -s 12 -d -1 -p message -e 32 -c 2 -a 0 -i 16 -k RTR
r -t 0.849128612 -s 19 -d -1 -p message -e 32 -c 2 -a 0 -i 16 -k RTR
r -t 0.849128634 -s 20 -d -1 -p message -e 32 -c 2 -a 0 -i 16 -k RTR
r -t 0.849128753 -s 1 -d -1 -p message -e 32 -c 2 -a 0 -i 16 -k RTR
r -t 0.849128754 -s 21 -d -1 -p message -e 32 -c 2 -a 0 -i 16 -k RTR
r -t 0.849128779 -s 24 -d -1 -p message -e 32 -c 2 -a 0 -i 16 -k RTR
r -t 0.849128841 -s 10 -d -1 -p message -e 32 -c 2 -a 0 -i 16 -k RTR
r -t 0.849128976 -s 13 -d -1 -p message -e 32 -c 2 -a 0 -i 16 -k RTR
+ -t 0.882674688 -s 4 -d -1 -p message -e 32 -c 2 -a 0 -i 17 -k RTR 
- -t 0.882674688 -s 4 -d -1 -p message -e 32 -c 2 -a 0 -i 17 -k RTR
h -t 0.882674688 -s 4 -d -1 -p message -e 32 -c 2 -a 0 -i 17 -k RTR
+ -t 0.882909688 -s 4 -d -1 -p message -e 90 -c 2 -a 0 -i 17 -k MAC 
- -t 0.882909688 -s 4 -d -1 -p message -e 90 -c 2 -a 0 -i 17 -k MAC
h -t 0.882909688 -s 4 -d -1 -p message -e 90 -c 2 -a 0 -i 17 -k MAC
r -t 0.883629954 -s 16 -d -1 -p message -e 32 -c 2 -a 0 -i 17 -k MAC
r -t 0.883630229 -s 1 -d -1 -p message -e 32 -c 2 -a 0 -i 17 -k MAC
r -t 0.883630279 -s 28 -d -1 -p message -e 32 -c 2 -a 0 -i 17 -k MAC
r -t 0.883630311 -s 22 -d -1 -p message -e 32 -c 2 -a 0 -i 17 -k MAC
r -t 0.883630717 -s 0 -d -1 -p message -e 32 -c 2 -a 0 -i 17 -k MAC
r -t 0.883654954 -s 16 -d -1 -p message -e 32 -c 2 -a 0 -i 17 -k RTR
r -t 0.883655229 -s 1 -d -1 -p message -e 32 -c 2 -a 0 -i 17 -k RTR
r -t 0.883655279 -s 28 -d -1 -p message -e 32 -c 2 -a 0 -i 17 -k RTR
r -t 0.883655311 -s 22 -d -1 -p message -e 32 -c 2 -a 0 -i 17 -k RTR
r -t 0.883655717 -s 0 -d -1 -p message -e 32 -c 2 -a 0 -i 17 -k RTR
+ -t 0.935449221 -s 25 -d -1 -p message -e 32 -c 2 -a 0 -i 18 -k RTR 
- -t 0.935449221 -s 25 -d -1 -p message -e 32 -c 2 -a 0 -i 18 -k RTR
h -t 0.935449221 -s 25 -d -1 -p message -e 32 -c 2 -a 0 -i 18 -k RTR
+ -t 0.935884221 -s 25 -d -1 -p message -e 90 -c 2 -a 0 -i 18 -k MAC 
- -t 0.935884221 -s 25 -d -1 -p message -e 90 -c 2 -a 0 -i 18 -k MAC
h -t 0.935884221 -s 25 -d -1 -p message -e 90 -c 2 -a 0 -i 18 -k MAC
r -t 0.936604221 -s 26 -d -1 -p message -e 32 -c 2 -a 0 -i 18 -k MAC
r -t 0.936604221 -s 27 -d -1 -p message -e 32 -c 2 -a 0 -i 18 -k MAC
r -t 0.936629221 -s 26 -d -1 -p message -e 32 -c 2 -a 0 -i 18 -k RTR
r -t 0.936629221 -s 27 -d -1 -p message -e 32 -c 2 -a 0 -i 18 -k RTR
+ -t 1.039009780 -s 24 -d -1 -p message -e 32 -c 2 -a 0 -i 19 -k RTR 
- -t 1.039009780 -s 24 -d -1 -p message -e 32 -c 2 -a 0 -i 19 -k RTR
h -t 1.039009780 -s 24 -d -1 -p message -e 32 -c 2 -a 0 -i 19 -k RTR
+ -t 1.039404780 -s 24 -d -1 -p message -e 90 -c 2 -a 0 -i 19 -k MAC 
- -t 1.039404780 -s 24 -d -1 -p message -e 90 -c 2 -a 0 -i 19 -k MAC
h -t 1.039404780 -s 24 -d -1 -p message -e 90 -c 2 -a 0 -i 19 -k MAC
r -t 1.040125399 -s 13 -d -1 -p message -e 32 -c 2 -a 0 -i 19 -k MAC
r -t 1.040125474 -s 10 -d -1 -p message -e 32 -c 2 -a 0 -i 19 -k MAC
r -t 1.040125585 -s 21 -d -1 -p message -e 32 -c 2 -a 0 -i 19 -k MAC
r -t 1.040125742 -s 3 -d -1 -p message -e 32 -c 2 -a 0 -i 19 -k MAC
r -t 1.040125787 -s 17 -d -1 -p message -e 32 -c 2 -a 0 -i 19 -k MAC
r -t 1.040125987 -s 1 -d -1 -p message -e 32 -c 2 -a 0 -i 19 -k MAC
r -t 1.040126009 -s 15 -d -1 -p message -e 32 -c 2 -a 0 -i 19 -k MAC
r -t 1.040126106 -s 0 -d -1 -p message -e 32 -c 2 -a 0 -i 19 -k MAC
r -t 1.040150399 -s 13 -d -1 -p message -e 32 -c 2 -a 0 -i 19 -k RTR
r -t 1.040150474 -s 10 -d -1 -p message -e 32 -c 2 -a 0 -i 19 -k RTR
r -t 1.040150585 -s 21 -d -1 -p message -e 32 -c 2 -a 0 -i 19 -k RTR
r -t 1.040150742 -s 3 -d -1 -p message -e 32 -c 2 -a 0 -i 19 -k RTR
r -t 1.040150787 -s 17 -d -1 -p message -e 32 -c 2 -a 0 -i 19 -k RTR
r -t 1.040150987 -s 1 -d -1 -p message -e 32 -c 2 -a 0 -i 19 -k RTR
r -t 1.040151009 -s 15 -d -1 -p message -e 32 -c 2 -a 0 -i 19 -k RTR
r -t 1.040151106 -s 0 -d -1 -p message -e 32 -c 2 -a 0 -i 19 -k RTR
+ -t 1.119657716 -s 1 -d -1 -p message -e 32 -c 2 -a 0 -i 20 -k RTR 
- -t 1.119657716 -s 1 -d -1 -p message -e 32 -c 2 -a 0 -i 20 -k RTR
h -t 1.119657716 -s 1 -d -1 -p message -e 32 -c 2 -a 0 -i 20 -k RTR
+ -t 1.119832716 -s 1 -d -1 -p message -e 90 -c 2 -a 0 -i 20 -k MAC 
- -t 1.119832716 -s 1 -d -1 -p message -e 90 -c 2 -a 0 -i 20 -k MAC
h -t 1.119832716 -s 1 -d -1 -p message -e 90 -c 2 -a 0 -i 20 -k MAC
r -t 1.120553216 -s 0 -d -1 -p message -e 32 -c 2 -a 0 -i 20 -k MAC
r -t 1.120553257 -s 4 -d -1 -p message -e 32 -c 2 -a 0 -i 20 -k MAC
r -t 1.120553330 -s 16 -d -1 -p message -e 32 -c 2 -a 0 -i 20 -k MAC
r -t 1.120553576 -s 15 -d -1 -p message -e 32 -c 2 -a 0 -i 20 -k MAC
r -t 1.120553653 -s 12 -d -1 -p message -e 32 -c 2 -a 0 -i 20 -k MAC
r -t 1.120553661 -s 22 -d -1 -p message -e 32 -c 2 -a 0 -i 20 -k MAC
r -t 1.120553697 -s 17 -d -1 -p message -e 32 -c 2 -a 0 -i 20 -k MAC
r -t 1.120553754 -s 28 -d -1 -p message -e 32 -c 2 -a 0 -i 20 -k MAC
r -t 1.120553923 -s 24 -d -1 -p message -e 32 -c 2 -a 0 -i 20 -k MAC
r -t 1.120578216 -s 0 -d -1 -p message -e 32 -c 2 -a 0 -i 20 -k RTR
r -t 1.120578257 -s 4 -d -1 -p message -e 32 -c 2 -a 0 -i 20 -k RTR