M 0.0 nn 30 x 1700 y 1700 rp DSDV
M 0.0 sc dsdv-update.tcl cp trafic seed 1.0
M 0.0 prop Propagation/TwoRayGround ant Antenna/OmniAntenna
M 0.00000 0 (257.14, 754.64, 0.00), (257.14, 754.64), 0.00
M 0.00000 1 (668.51, 1399.36, 0.00), (668.51, 1399.36), 0.00
M 0.00000 2 (442.29, 393.08, 0.00), (442.29, 393.08), 0.00
M 0.00000 3 (399.12, 196.90, 0.00), (399.12, 196.90), 0.00
M 0.00000 4 (585.75, 743.11, 0.00), (585.75, 743.11), 0.00
M 0.00000 5 (178.76, 685.19, 0.00), (178.76, 685.19), 0.00
M 0.00000 6 (508.02, 145.82, 0.00), (508.02, 145.82), 0.00
M 0.00000 7 (347.95, 1184.79, 0.00), (347.95, 1184.79), 0.00
M 0.00000 8 (1154.10, 693.04, 0.00), (1154.10, 693.04), 0.00
M 0.00000 9 (551.96, 780.08, 0.00), (551.96, 780.08), 0.00
M 0.00000 10 (949.20, 227.86, 0.00), (949.20, 227.86), 0.00
M 0.00000 11 (350.82, 532.36, 0.00), (350.82, 532.36), 0.00
M 0.00000 12 (1170.06, 683.91, 0.00), (1170.06, 683.91), 0.00
M 0.00000 13 (1057.82, 184.02, 0.00), (1057.82, 184.02), 0.00
M 0.00000 14 (1075.48, 168.42, 0.00), (1075.48, 168.42), 0.00
M 0.00000 15 (1012.29, 1386.78, 0.00), (1012.29, 1386.78), 0.00
M 0.00000 16 (826.24, 508.80, 0.00), (826.24, 508.80), 0.00
M 0.00000 17 (395.52, 677.34, 0.00), (395.52, 677.34), 0.00
M 0.00000 18 (1108.46, 338.55, 0.00), (1108.46, 338.55), 0.00
M 0.00000 19 (1355.05, 1098.54, 0.00), (1355.05, 1098.54), 0.00
M 0.00000 20 (236.77, 1327.98, 0.00), (236.77, 1327.98), 0.00
M 0.00000 21 (1262.91, 478.63, 0.00), (1262.91, 478.63), 0.00
M 0.00000 22 (676.33, 1069.52, 0.00), (676.33, 1069.52), 0.00
M 0.00000 23 (334.58, 165.76, 0.00), (334.58, 165.76), 0.00
M 0.00000 24 (839.71, 708.89, 0.00), (839.71, 708.89), 0.00
M 0.00000 25 (344.38, 851.20, 0.00), (344.38, 851.20), 0.00
M 0.00000 26 (864.62, 653.26, 0.00), (864.62, 653.26), 0.00
M 0.00000 27 (693.14, 1300.43, 0.00), (693.14, 1300.43), 0.00
M 0.00000 0 (257.14, 754.64, 0.00), (257.14, 754.64), 13.89
M 0.00000 1 (668.51, 1399.36, 0.00), (668.51, 1399.36), 13.89
s 0.003091411 _0_ RTR  --- 0 message 32 [0 0 0 0] ------- [0:255 -1:255 32 0] 
s 0.003466411 _0_ MAC  --- 0 message 90 [0 ffffffff 0 800] ------- [0:255 -1:255 32 0] 
r 0.004186760 _5_ MAC  --- 0 message 32 [0 ffffffff 0 800] ------- [0:255 -1:255 32 0] 
r 0.004186845 _25_ MAC  --- 0 message 32 [0 ffffffff 0 800] ------- [0:255 -1:255 32 0] 
r 0.004186939 _17_ MAC  --- 0 message 32 [0 ffffffff 0 800] ------- [0:255 -1:255 32 0] 
r 0.004187215 _11_ MAC  --- 0 message 32 [0 ffffffff 0 800] ------- [0:255 -1:255 32 0] 
r 0.004187397 _9_ MAC  --- 0 message 32 [0 ffffffff 0 800] ------- [0:255 -1:255 32 0] 
r 0.004187507 _4_ MAC  --- 0 message 32 [0 ffffffff 0 800] ------- [0:255 -1:255 32 0] 
r 0.004187595 _28_ MAC  --- 0 message 32 [0 ffffffff 0 800] ------- [0:255 -1:255 32 0] 
r 0.004211760 _5_ RTR  --- 0 message 32 [0 ffffffff 0 800] ------- [0:255 -1:255 32 0] 
r 0.004211845 _25_ RTR  --- 0 message 32 [0 ffffffff 0 800] ------- [0:255 -1:255 32 0] 
r 0.004211939 _17_ RTR  --- 0 message 32 [0 ffffffff 0 800] ------- [0:255 -1:255 32 0] 
r 0.004212215 _11_ RTR  --- 0 message 32 [0 ffffffff 0 800] ------- [0:255 -1:255 32 0] 
r 0.004212397 _9_ RTR  --- 0 message 32 [0 ffffffff 0 800] ------- [0:255 -1:255 32 0] 
r 0.004212507 _4_ RTR  --- 0 message 32 [0 ffffffff 0 800] ------- [0:255 -1:255 32 0] 
r 0.004212595 _28_ RTR  --- 0 message 32 [0 ffffffff 0 800] ------- [0:255 -1:255 32 0] 
s 0.037458776 _2_ RTR  --- 1 message 32 [0 0 0 0] ------- [2:255 -1:255 32 0] 
s 0.037813776 _2_ MAC  --- 1 message 90 [0 ffffffff 2 800] ------- [2:255 -1:255 32 0] 
r 0.038534331 _11_ MAC  --- 1 message 32 [0 ffffffff 2 800] ------- [2:255 -1:255 32 0] 
r 0.038534446 _3_ MAC  --- 1 message 32 [0 ffffffff 2 800] ------- [2:255 -1:255 32 0] 
r 0.038534614 _23_ MAC  --- 1 message 32 [0 ffffffff 2 800] ------- [2:255 -1:255 32 0] 
r 0.038534629 _6_ MAC  --- 1 message 32 [0 ffffffff 2 800] ------- [2:255 -1:255 32 0] 
r 0.038534736 _17_ MAC  --- 1 message 32 [0 ffffffff 2 800] ------- [2:255 -1:255 32 0] 
r 0.038535037 _4_ MAC  --- 1 message 32 [0 ffffffff 2 800] ------- [2:255 -1:255 32 0] 
r 0.038535087 _5_ MAC  --- 1 message 32 [0 ffffffff 2 800] ------- [2:255 -1:255 32 0] 
r 0.038559331 _11_ RTR  --- 1 message 32 [0 ffffffff 2 800] ------- [2:255 -1:255 32 0] 
r 0.038559446 _3_ RTR  --- 1 message 32 [0 ffffffff 2 800] ------- [2:255 -1:255 32 0] 
r 0.038559614 _23_ RTR  --- 1 message 32 [0 ffffffff 2 800] ------- [2:255 -1:255 32 0] 
r 0.038559629 _6_ RTR  --- 1 message 32 [0 ffffffff 2 800] ------- [2:255 -1:255 32 0] 
r 0.038559736 _17_ RTR  --- 1 message 32 [0 ffffffff 2 800] ------- [2:255 -1:255 32 0] 
r 0.038560037 _4_ RTR  --- 1 message 32 [0 ffffffff 2 800] ------- [2:255 -1:255 32 0] 
r 0.038560087 _5_ RTR  --- 1 message 32 [0 ffffffff 2 800] ------- [2:255 -1:255 32 0] 
s 0.087462768 _13_ RTR  --- 2 message 32 [0 0 0 0] ------- [13:255 -1:255 32 0] 
s 0.087757768 _13_ MAC  --- 2 message 90 [0 ffffffff d 800] ------- [13:255 -1:255 32 0] 
r 0.088477846 _14_ MAC  --- 2 message 32 [0 ffffffff d 800] ------- [13:255 -1:255 32 0] 
r 0.088478158 _10_ MAC  --- 2 message 32 [0 ffffffff d 800] ------- [13:255 -1:255 32 0] 
r 0.088478310 _18_ MAC  --- 2 message 32 [0 ffffffff d 800] ------- [13:255 -1:255 32 0] 
r 0.088478411 _29_ MAC  --- 2 message 32 [0 ffffffff d 800] ------- [13:255 -1:255 32 0] 
r 0.088478964 _21_ MAC  --- 2 message 32 [0 ffffffff d 800] ------- [13:255 -1:255 32 0] 
r 0.088479098 _16_ MAC  --- 2 message 32 [0 ffffffff d 800] ------- [13:255 -1:255 32 0] 
r 0.088502846 _14_ RTR  --- 2 message 32 [0 ffffffff d 800] ------- [13:255 -1:255 32 0] 
r 0.088503158 _10_ RTR  --- 2 message 32 [0 ffffffff d 800] ------- [13:255 -1:255 32 0] 
r 0.088503310 _18_ RTR  --- 2 message 32 [0 ffffffff d 800] ------- [13:255 -1:255 32 0] 
r 0.088503411 _29_ RTR  --- 2 message 32 [0 ffffffff d 800] ------- [13:255 -1:255 32 0] 
r 0.088503964 _21_ RTR  --- 2 message 32 [0 ffffffff d 800] ------- [13:255 -1:255 32 0] 
r 0.088504098 _16_ RTR  --- 2 message 32 [0 ffffffff d 800] ------- [13:255 -1:255 32 0] 
s 0.177365656 _3_ RTR  --- 3 message 32 [0 0 0 0] ------- [3:255 -1:255 32 0] 
s 0.177560656 _3_ MAC  --- 3 message 90 [0 ffffffff 3 800] ------- [3:255 -1:255 32 0] 
r 0.178280895 _23_ MAC  --- 3 message 32 [0 ffffffff 3 800] ------- [3:255 -1:255 32 0] 
r 0.178281057 _6_ MAC  --- 3 message 32 [0 ffffffff 3 800] ------- [3:255 -1:255 32 0] 
r 0.178281325 _2_ MAC  --- 3 message 32 [0 ffffffff 3 800] ------- [3:255 -1:255 32 0] 
r 0.178281786 _11_ MAC  --- 3 message 32 [0 ffffffff 3 800] ------- [3:255 -1:255 32 0] 
r 0.178305895 _23_ RTR  --- 3 message 32 [0 ffffffff 3 800] ------- [3:255 -1:255 32 0] 
r 0.178306057 _6_ RTR  --- 3 message 32 [0 ffffffff 3 800] ------- [3:255 -1:255 32 0] 
r 0.178306325 _2_ RTR  --- 3 message 32 [0 ffffffff 3 800] ------- [3:255 -1:255 32 0] 
r 0.178306786 _11_ RTR  --- 3 message 32 [0 ffffffff 3 800] ------- [3:255 -1:255 32 0] 
s 0.191634337 _19_ RTR  --- 4 message 32 [0 0 0 0] ------- [19:255 -1:255 32 0] 
s 0.191889337 _19_ MAC  --- 4 message 90 [0 ffffffff 13 800] ------- [19:255 -1:255 32 0] 
s 0.234603229 _15_ RTR  --- 5 message 32 [0 0 0 0] ------- [15:255 -1:255 32 0] 
s 0.234898229 _15_ MAC  --- 5 message 90 [0 ffffffff f 800] ------- [15:255 -1:255 32 0] 
r 0.235619332 _27_ MAC  --- 5 message 32 [0 ffffffff f 800] ------- [15:255 -1:255 32 0] 
r 0.235619376 _1_ MAC  --- 5 message 32 [0 ffffffff f 800] ------- [15:255 -1:255 32 0] 
r 0.235644332 _27_ RTR  --- 5 message 32 [0 ffffffff f 800] ------- [15:255 -1:255 32 0] 
r 0.235644376 _1_ RTR  --- 5 message 32 [0 ffffffff f 800] ------- [15:255 -1:255 32 0] 
s 0.333839210 _12_ RTR  --- 6 message 32 [0 0 0 0] ------- [12:255 -1:255 32 0] 
s 0.333994210 _12_ MAC  --- 6 message 90 [0 ffffffff c 800] ------- [12:255 -1:255 32 0] 
r 0.334714271 _8_ MAC  --- 6 message 32 [0 ffffffff c 800] ------- [12:255 -1:255 32 0] 
r 0.334714961 _21_ MAC  --- 6 message 32 [0 ffffffff c 800] ------- [12:255 -1:255 32 0] 
r 0.334715233 _26_ MAC  --- 6 message 32 [0 ffffffff c 800] ------- [12:255 -1:255 32 0] 
r 0.334715314 _24_ MAC  --- 6 message 32 [0 ffffffff c 800] ------- [12:255 -1:255 32 0] 
r 0.334715379 _18_ MAC  --- 6 message 32 [0 ffffffff c 800] ------- [12:255 -1:255 32 0] 
r 0.334715496 _16_ MAC  --- 6 message 32 [0 ffffffff c 800] ------- [12:255 -1:255 32 0] 
r 0.334739271 _8_ RTR  --- 6 message 32 [0 ffffffff c 800] ------- [12:255 -1:255 32 0] 
r 0.334739961 _21_ RTR  --- 6 message 32 [0 ffffffff c 800] ------- [12:255 -1:255 32 0] 
r 0.334740233 _26_ RTR  --- 6 message 32 [0 ffffffff c 800] ------- [12:255 -1:255 32 0] 
r 0.334740314 _24_ RTR  --- 6 message 32 [0 ffffffff c 800] ------- [12:255 -1:255 32 0] 
r 0.334740379 _18_ RTR  --- 6 message 32 [0 ffffffff c 800] ------- [12:255 -1:255 32 0] 
r 0.334740496 _16_ RTR  --- 6 message 32 [0 ffffffff c 800] ------- [12:255 -1:255 32 0] 
s 0.351472650 _18_ RTR  --- 7 message 32 [0 0 0 0] ------- [18:255 -1:255 32 0] 
s 0.351847650 _18_ MAC  --- 7 message 90 [0 ffffffff 12 800] ------- [18:255 -1:255 32 0] 
r 0.352568192 _13_ MAC  --- 7 message 32 [0 ffffffff 12 800] ------- [18:255 -1:255 32 0] 
r 0.352568228 _14_ MAC  --- 7 message 32 [0 ffffffff 12 800] ------- [18:255 -1:255 32 0] 
r 0.352568297 _10_ MAC  --- 7 message 32 [0 ffffffff 12 800] ------- [18:255 -1:255 32 0] 
r 0.352568345 _21_ MAC  --- 7 message 32 [0 ffffffff 12 800] ------- [18:255 -1:255 32 0] 
r 0.352568749 _16_ MAC  --- 7 message 32 [0 ffffffff 12 800] ------- [18:255 -1:255 32 0] 
r 0.352568820 _12_ MAC  --- 7 message 32 [0 ffffffff 12 800] ------- [18:255 -1:255 32 0] 
r 0.352568835 _29_ MAC  --- 7 message 32 [0 ffffffff 12 800] ------- [18:255 -1:255 32 0] 
r 0.352568842 _8_ MAC  --- 7 message 32 [0 ffffffff 12 800] ------- [18:255 -1:255 32 0] 
r 0.352568977 _26_ MAC  --- 7 message 32 [0 ffffffff 12 800] ------- [18:255 -1:255 32 0] 
r 0.352593192 _13_ RTR  --- 7 message 32 [0 ffffffff 12 800] ------- [18:255 -1:255 32 0] 
r 0.352593228 _14_ RTR  --- 7 message 32 [0 ffffffff 12 800] ------- [18:255 -1:255 32 0] 
r 0.352593297 _10_ RTR  --- 7 message 32 [0 ffffffff 12 800] ------- [18:255 -1:255 32 0] 
r 0.352593345 _21_ RTR  --- 7 message 32 [0 ffffffff 12 800] ------- [18:255 -1:255 32 0] 
r 0.352593749 _16_ RTR  --- 7 message 32 [0 ffffffff 12 800] ------- [18:255 -1:255 32 0] 
r 0.352593820 _12_ RTR  --- 7 message 32 [0 ffffffff 12 800] ------- [18:255 -1:255 32 0] 
r 0.352593835 _29_ RTR  --- 7 message 32 [0 ffffffff 12 800] ------- [18:255 -1:255 32 0] 
r 0.352593842 _8_ RTR  --- 7 message 32 [0 ffffffff 12 800] ------- [18:255 -1:255 32 0] 
r 0.352593977 _26_ RTR  --- 7 message 32 [0 ffffffff 12 800] ------- [18:255 -1:255 32 0] 
s 0.436386259 _29_ RTR  --- 8 message 32 [0 0 0 0] ------- [29:255 -1:255 32 0] 
s 0.436701259 _29_ MAC  --- 8 message 90 [0 ffffffff 1d 800] ------- [29:255 -1:255 32 0] 
r 0.437421874 _14_ MAC  --- 8 message 32 [0 ffffffff 1d 800] ------- [29:255 -1:255 32 0] 
r 0.437421902 _13_ MAC  --- 8 message 32 [0 ffffffff 1d 800] ------- [29:255 -1:255 32 0] 
r 0.437422037 _10_ MAC  --- 8 message 32 [0 ffffffff 1d 800] ------- [29:255 -1:255 32 0] 
r 0.437422444 _18_ MAC  --- 8 message 32 [0 ffffffff 1d 800] ------- [29:255 -1:255 32 0] 
r 0.437446874 _14_ RTR  --- 8 message 32 [0 ffffffff 1d 800] ------- [29:255 -1:255 32 0] 
r 0.437446902 _13_ RTR  --- 8 message 32 [0 ffffffff 1d 800] ------- [29:255 -1:255 32 0] 
r 0.437447037 _10_ RTR  --- 8 message 32 [0 ffffffff 1d 800] ------- [29:255 -1:255 32 0] 
r 0.437447444 _18_ RTR  --- 8 message 32 [0 ffffffff 1d 800] ------- [29:255 -1:255 32 0] 
s 0.470117073 _8_ RTR  --- 9 message 32 [0 0 0 0] ------- [8:255 -1:255 32 0] 
s 0.470652073 _8_ MAC  --- 9 message 90 [0 ffffffff 8 800] ------- [8:255 -1:255 32 0] 
r 0.471372134 _12_ MAC  --- 9 message 32 [0 ffffffff 8 800] ------- [8:255 -1:255 32 0] 
r 0.471372874 _21_ MAC  --- 9 message 32 [0 ffffffff 8 800] ------- [8:255 -1:255 32 0] 
r 0.471373047 _26_ MAC  --- 9 message 32 [0 ffffffff 8 800] ------- [8:255 -1:255 32 0] 
r 0.471373122 _24_ MAC  --- 9 message 32 [0 ffffffff 8 800] ------- [8:255 -1:255 32 0] 
r 0.471373264 _18_ MAC  --- 9 message 32 [0 ffffffff 8 800] ------- [8:255 -1:255 32 0] 
r 0.471373326 _16_ MAC  --- 9 message 32 [0 ffffffff 8 800] ------- [8:255 -1:255 32 0] 
r 0.471397134 _12_ RTR  --- 9 message 32 [0 ffffffff 8 800] ------- [8:255 -1:255 32 0] 
r 0.471397874 _21_ RTR  --- 9 message 32 [0 ffffffff 8 800] ------- [8:255 -1:255 32 0] 
r 0.471398047 _26_ RTR  --- 9 message 32 [0 ffffffff 8 800] ------- [8:255 -1:255 32 0] 
r 0.471398122 _24_ RTR  --- 9 message 32 [0 ffffffff 8 800] ------- [8:255 -1:255 32 0] 
r 0.471398264 _18_ RTR  --- 9 message 32 [0 ffffffff 8 800] ------- [8:255 -1:255 32 0] 
r 0.471398326 _16_ RTR  --- 9 message 32 [0 ffffffff 8 800] ------- [8:255 -1:255 32 0] 
s 0.521504883 _22_ RTR  --- 10 message 32 [0 0 0 0] ------- [22:255 -1:255 32 0] 
s 0.521659883 _22_ MAC  --- 10 message 90 [0 ffffffff 16 800] ------- [22:255 -1:255 32 0] 
r 0.522380655 _27_ MAC  --- 10 message 32 [0 ffffffff 16 800] ------- [22:255 -1:255 32 0] 
r 0.522380933 _9_ MAC  --- 10 message 32 [0 ffffffff 16 800] ------- [22:255 -1:255 32 0] 
r 0.522380983 _1_ MAC  --- 10 message 32 [0 ffffffff 16 800] ------- [22:255 -1:255 32 0] 
r 0.522381012 _4_ MAC  --- 10 message 32 [0 ffffffff 16 800] ------- [22:255 -1:255 32 0] 
r 0.522381043 _7_ MAC  --- 10 message 32 [0 ffffffff 16 800] ------- [22:255 -1:255 32 0] 
r 0.522381203 _24_ MAC  --- 10 message 32 [0 ffffffff 16 800] ------- [22:255 -1:255 32 0] 
r 0.522381208 _25_ MAC  --- 10 message 32 [0 ffffffff 16 800] ------- [22:255 -1:255 32 0] 
r 0.522405655 _27_ RTR  --- 10 message 32 [0 ffffffff 16 800] ------- [22:255 -1:255 32 0] 
r 0.522405933 _9_ RTR  --- 10 message 32 [0 ffffffff 16 800] ------- [22:255 -1:255 32 0] 
r 0.522405983 _1_ RTR  --- 10 message 32 [0 ffffffff 16 800] ------- [22:255 -1:255 32 0] 
r 0.522406012 _4_ RTR  --- 10 message 32 [0 ffffffff 16 800] ------- [22:255 -1:255 32 0] 
r 0.522406043 _7_ RTR  --- 10 message 32 [0 ffffffff 16 800] ------- [22:255 -1:255 32 0] 
r 0.522406203 _24_ RTR  --- 10 message 32 [0 ffffffff 16 800] ------- [22:255 -1:255 32 0] 
r 0.522406208 _25_ RTR  --- 10 message 32 [0 ffffffff 16 800] ------- [22:255 -1:255 32 0] 
s 0.556838879 _28_ AGT  --- 11 cbr 512 [0 0 0 0] ------- [28:0 29:0 32 0] [0] 0 0
r 0.556838879 _28_ RTR  --- 11 cbr 512 [0 0 0 0] ------- [28:0 29:0 32 0] [0] 0 0
s 0.627186592 _10_ RTR  --- 12 message 32 [0 0 0 0] ------- [10:255 -1:255 32 0] 
s 0.627321592 _10_ MAC  --- 12 message 90 [0 ffffffff a 800] ------- [10:255 -1:255 32 0] 
r 0.628041983 _13_ MAC  --- 12 message 32 [0 ffffffff a 800] ------- [10:255 -1:255 32 0] 
r 0.628042057 _14_ MAC  --- 12 message 32 [0 ffffffff a 800] ------- [10:255 -1:255 32 0] 
r 0.628042239 _18_ MAC  --- 12 message 32 [0 ffffffff a 800] ------- [10:255 -1:255 32 0] 
r 0.628042370 _29_ MAC  --- 12 message 32 [0 ffffffff a 800] ------- [10:255 -1:255 32 0] 
r 0.628042614 _16_ MAC  --- 12 message 32 [0 ffffffff a 800] ------- [10:255 -1:255 32 0] 
r 0.628066983 _13_ RTR  --- 12 message 32 [0 ffffffff a 800] ------- [10:255 -1:255 32 0] 
r 0.628067057 _14_ RTR  --- 12 message 32 [0 ffffffff a 800] ------- [10:255 -1:255 32 0] 
r 0.628067239 _18_ RTR  --- 12 message 32 [0 ffffffff a 800] ------- [10:255 -1:255 32 0] 
r 0.628067370 _29_ RTR  --- 12 message 32 [0 ffffffff a 800] ------- [10:255 -1:255 32 0] 
r 0.628067614 _16_ RTR  --- 12 message 32 [0 ffffffff a 800] ------- [10:255 -1:255 32 0] 
s 0.634670006 _6_ RTR  --- 13 message 32 [0 0 0 0] ------- [6:255 -1:255 32 0] 
s 0.634865006 _6_ MAC  --- 13 message 90 [0 ffffffff 6 800] ------- [6:255 -1:255 32 0] 
r 0.635585407 _3_ MAC  --- 13 message 32 [0 ffffffff 6 800] ------- [6:255 -1:255 32 0] 
r 0.635585588 _23_ MAC  --- 13 message 32 [0 ffffffff 6 800] ------- [6:255 -1:255 32 0] 
r 0.635585859 _2_ MAC  --- 13 message 32 [0 ffffffff 6 800] ------- [6:255 -1:255 32 0] 
r 0.635610407 _3_ RTR  --- 13 message 32 [0 ffffffff 6 800] ------- [6:255 -1:255 32 0] 
r 0.635610588 _23_ RTR  --- 13 message 32 [0 ffffffff 6 800] ------- [6:255 -1:255 32 0] 
r 0.635610859 _2_ RTR  --- 13 message 32 [0 ffffffff 6 800] ------- [6:255 -1:255 32 0] 
s 0.705637875 _21_ RTR  --- 14 message 32 [0 0 0 0] ------- [21:255 -1:255 32 0] 
s 0.706012875 _21_ MAC  --- 14 message 90 [0 ffffffff 15 800] ------- [21:255 -1:255 32 0] 
r 0.706733570 _18_ MAC  --- 14 message 32 [0 ffffffff 15 800] ------- [21:255 -1:255 32 0] 
r 0.706733626 _12_ MAC  --- 14 message 32 [0 ffffffff 15 800] ------- [21:255 -1:255 32 0] 
r 0.706733676 _8_ MAC  --- 14 message 32 [0 ffffffff 15 800] ------- [21:255 -1:255 32 0] 
r 0.706734071 _13_ MAC  --- 14 message 32 [0 ffffffff 15 800] ------- [21:255 -1:255 32 0] 
r 0.706734083 _14_ MAC  --- 14 message 32 [0 ffffffff 15 800] ------- [21:255 -1:255 32 0] 
r 0.706758570 _18_ RTR  --- 14 message 32 [0 ffffffff 15 800] ------- [21:255 -1:255 32 0] 
r 0.706758626 _12_ RTR  --- 14 message 32 [0 ffffffff 15 800] ------- [21:255 -1:255 32 0] 
r 0.706758676 _8_ RTR  --- 14 message 32 [0 ffffffff 15 800] ------- [21:255 -1:255 32 0] 
r 0.706759071 _13_ RTR  --- 14 message 32 [0 ffffffff 15 800] ------- [21:255 -1:255 32 0] 
r 0.706759083 _14_ RTR  --- 14 message 32 [0 ffffffff 15 800] ------- [21:255 -1:255 32 0] 
s 0.821435127 _23_ RTR  --- 15 message 32 [0 0 0 0] ------- [23:255 -1:255 32 0] 
s 0.821550127 _23_ MAC  --- 15 message 90 [0 ffffffff 17 800] ------- [23:255 -1:255 32 0] 
r 0.822270366 _3_ MAC  --- 15 message 32 [0 ffffffff 17 800] ------- [23:255 -1:255 32 0] 
r 0.822270709 _6_ MAC  --- 15 message 32 [0 ffffffff 17 800] ------- [23:255 -1:255 32 0] 
r 0.822270966 _2_ MAC  --- 15 message 32 [0 ffffffff 17 800] ------- [23:255 -1:255 32 0] 
r 0.822271350 _11_ MAC  --- 15 message 32 [0 ffffffff 17 800] ------- [23:255 -1:255 32 0] 
r 0.822295366 _3_ RTR  --- 15 message 32 [0 ffffffff 17 800] ------- [23:255 -1:255 32 0] 
r 0.822295709 _6_ RTR  --- 15 message 32 [0 ffffffff 17 800] ------- [23:255 -1:255 32 0] 
r 0.822295966 _2_ RTR  --- 15 message 32 [0 ffffffff 17 800] ------- [23:255 -1:255 32 0] 
r 0.822296350 _11_ RTR  --- 15 message 32 [0 ffffffff 17 800] ------- [23:255 -1:255 32 0] 
s 0.848147771 _17_ RTR  --- 16 message 32 [0 0 0 0] ------- [17:255 -1:255 32 0] 
s 0.848382771 _17_ MAC  --- 16 message 90 [0 ffffffff 11 800] ------- [17:255 -1:255 32 0] 
r 0.849103277 _11_ MAC  --- 16 message 32 [0 ffffffff 11 800] ------- [17:255 -1:255 32 0] 
r 0.849103300 _0_ MAC  --- 16 message 32 [0 ffffffff 11 800] ------- [17:255 -1:255 32 0] 
r 0.849103376 _25_ MAC  --- 16 message 32 [0 ffffffff 11 800] ------- [17:255 -1:255 32 0] 
r 0.849103395 _9_ MAC  --- 16 message 32 [0 ffffffff 11 800] ------- [17:255 -1:255 32 0] 
r 0.849103442 _4_ MAC  --- 16 message 32 [0 ffffffff 11 800] ------- [17:255 -1:255 32 0] 
r 0.849103495 _5_ MAC  --- 16 message 32 [0 ffffffff 11 800] ------- [17:255 -1:255 32 0] 
r 0.849103732 _2_ MAC  --- 16 message 32 [0 ffffffff 11 800] ------- [17:255 -1:255 32 0] 
r 0.849128277 _11_ RTR  --- 16 message 32 [0 ffffffff 11 800] ------- [17:255 -1:255 32 0] 
r 0.849128300 _0_ RTR  --- 16 message 32 [0 ffffffff 11 800] ------- [17:255 -1:255 32 0] 
r 0.849128376 _25_ RTR  --- 16 message 32 [0 ffffffff 11 800] ------- [17:255 -1:255 32 0] 
r 0.849128395 _9_ RTR  --- 16 message 32 [0 ffffffff 11 800] ------- [17:255 -1:255 32 0] 
r 0.849128442 _4_ RTR  --- 16 message 32 [0 ffffffff 11 800] ------- [17:255 -1:255 32 0] 
r 0.849128495 _5_ RTR  --- 16 message 32 [0 ffffffff 11 800] ------- [17:255 -1:255 32 0] 
r 0.849128732 _2_ RTR  --- 16 message 32 [0 ffffffff 11 800] ------- [17:255 -1:255 32 0] 
s 0.882674688 _4_ RTR  --- 17 message 32 [0 0 0 0] ------- [4:255 -1:255 32 0] 
s 0.882909688 _4_ MAC  --- 17 message 90 [0 ffffffff 4 800] ------- [4:255 -1:255 32 0] 
r 0.883629855 _9_ MAC  --- 17 message 32 [0 ffffffff 4 800] ------- [4:255 -1:255 32 0] 
r 0.883630359 _17_ MAC  --- 17 message 32 [0 ffffffff 4 800] ------- [4:255 -1:255 32 0] 
r 0.883630542 _24_ MAC  --- 17 message 32 [0 ffffffff 4 800] ------- [4:255 -1:255 32 0] 
r 0.883630569 _25_ MAC  --- 17 message 32 [0 ffffffff 4 800] ------- [4:255 -1:255 32 0] 
r 0.883630664 _26_ MAC  --- 17 message 32 [0 ffffffff 4 800] ------- [4:255 -1:255 32 0] 
r 0.883630740 _11_ MAC  --- 17 message 32 [0 ffffffff 4 800] ------- [4:255 -1:255 32 0] 
r 0.883630784 _0_ MAC  --- 17 message 32 [0 ffffffff 4 800] ------- [4:255 -1:255 32 0] 
r 0.883630807 _16_ MAC  --- 17 message 32 [0 ffffffff 4 800] ------- [4:255 -1:255 32 0] 
r 0.883630817 _22_ MAC  --- 17 message 32 [0 ffffffff 4 800] ------- [4:255 -1:255 32 0] 
r 0.883630949 _2_ MAC  --- 17 message 32 [0 ffffffff 4 800] ------- [4:255 -1:255 32 0] 
r 0.883654855 _9_ RTR  --- 17 message 32 [0 ffffffff 4 800] ------- [4:255 -1:255 32 0] 
r 0.883655359 _17_ RTR  --- 17 message 32 [0 ffffffff 4 800] ------- [4:255 -1:255 32 0] 
r 0.883655542 _24_ RTR  --- 17 message 32 [0 ffffffff 4 800] ------- [4:255 -1:255 32 0] 
r 0.883655569 _25_ RTR  --- 17 message 32 [0 ffffffff 4 800] ------- [4:255 -1:255 32 0] 
r 0.883655664 _26_ RTR  --- 17 message 32 [0 ffffffff 4 800] ------- [4:255 -1:255 32 0] 
r 0.883655740 _11_ RTR  --- 17 message 32 [0 ffffffff 4 800] ------- [4:255 -1:255 32 0] 
r 0.883655784 _0_ RTR  --- 17 message 32 [0 ffffffff 4 800] ------- [4:255 -1:255 32 0] 
r 0.883655807 _16_ RTR  --- 17 message 32 [0 ffffffff 4 800] ------- [4:255 -1:255 32 0] 
r 0.883655817 _22_ RTR  --- 17 message 32 [0 ffffffff 4 800] ------- [4:255 -1:255 32 0] 
r 0.883655949 _2_ RTR  --- 17 message 32 [0 ffffffff 4 800] ------- [4:255 -1:255 32 0] 
s 0.935449221 _25_ RTR  --- 18 message 32 [0 0 0 0] ------- [25:255 -1:255 32 0] 
s 0.935884221 _25_ MAC  --- 18 message 90 [0 ffffffff 19 800] ------- [25:255 -1:255 32 0] 
r 0.936604655 _0_ MAC  --- 18 message 32 [0 ffffffff 19 800] ------- [25:255 -1:255 32 0] 
r 0.936604825 _17_ MAC  --- 18 message 32 [0 ffffffff 19 800] ------- [25:255 -1:255 32 0] 
r 0.936604952 _9_ MAC  --- 18 message 32 [0 ffffffff 19 800] ------- [25:255 -1:255 32 0] 
r 0.936605003 _5_ MAC  --- 18 message 32 [0 ffffffff 19 800] ------- [25:255 -1:255 32 0] 
r 0.936605102 _4_ MAC  --- 18 message 32 [0 ffffffff 19 800] ------- [25:255 -1:255 32 0] 
r 0.936605284 _11_ MAC  --- 18 message 32 [0 ffffffff 19 800] ------- [25:255 -1:255 32 0] 
r 0.936605333 _7_ MAC  --- 18 message 32 [0 ffffffff 19 800] ------- [25:255 -1:255 32 0] 
r 0.936605471 _28_ MAC  --- 18 message 32 [0 ffffffff 19 800] ------- [25:255 -1:255 32 0] 
r 0.936605545 _22_ MAC  --- 18 message 32 [0 ffffffff 19 800] ------- [25:255 -1:255 32 0] 
r 0.936629655 _0_ RTR  --- 18 message 32 [0 ffffffff 19 800] ------- [25:255 -1:255 32 0] 
r 0.936629825 _17_ RTR  --- 18 message 32 [0 ffffffff 19 800] ------- [25:255 -1:255 32 0] 
r 0.936629952 _9_ RTR  --- 18 message 32 [0 ffffffff 19 800] ------- [25:255 -1:255 32 0] 
r 0.936630003 _5_ RTR  --- 18 message 32 [0 ffffffff 19 800] ------- [25:255 -1:255 32 0] 
r 0.936630102 _4_ RTR  --- 18 message 32 [0 ffffffff 19 800] ------- [25:255 -1:255 32 0] 
r 0.936630284 _11_ RTR  --- 18 message 32 [0 ffffffff 19 800] ------- [25:255 -1:255 32 0] 
r 0.936630333 _7_ RTR  --- 18 message 32 [0 ffffffff 19 800] ------- [25:255 -1:255 32 0] 
r 0.936630471 _28_ RTR  --- 18 message 32 [0 ffffffff 19 800] ------- [25:255 -1:255 32 0] 
r 0.936630545 _22_ RTR  --- 18 message 32 [0 ffffffff 19 800] ------- [25:255 -1:255 32 0] 
s 1.039009780 _24_ RTR  --- 19 message 32 [0 0 0 0] ------- [24:255 -1:255 32 0] 
s 1.039404780 _24_ MAC  --- 19 message 90 [0 ffffffff 18 800] ------- [24:255 -1:255 32 0] 
r 1.040124983 _26_ MAC  --- 19 message 32 [0 ffffffff 18 800] ------- [24:255 -1:255 32 0] 
r 1.040125448 _16_ MAC  --- 19 message 32 [0 ffffffff 18 800] ------- [24:255 -1:255 32 0] 
r 1.040125634 _4_ MAC  --- 19 message 32 [0 ffffffff 18 800] ------- [24:255 -1:255 32 0] 
r 1.040125768 _9_ MAC  --- 19 message 32 [0 ffffffff 18 800] ------- [24:255 -1:255 32 0] 
r 1.040125829 _8_ MAC  --- 19 message 32 [0 ffffffff 18 800] ------- [24:255 -1:255 32 0] 
r 1.040125884 _12_ MAC  --- 19 message 32 [0 ffffffff 18 800] ------- [24:255 -1:255 32 0] 
r 1.040126099 _22_ MAC  --- 19 message 32 [0 ffffffff 18 800] ------- [24:255 -1:255 32 0] 
r 1.040149983 _26_ RTR  --- 19 message 32 [0 ffffffff 18 800] ------- [24:255 -1:255 32 0] 
r 1.040150448 _16_ RTR  --- 19 message 32 [0 ffffffff 18 800] ------- [24:255 -1:255 32 0] 
r 1.040150634 _4_ RTR  --- 19 message 32 [0 ffffffff 18 800] ------- [24:255 -1:255 32 0] 
r 1.040150768 _9_ RTR  --- 19 message 32 [0 ffffffff 18 800] ------- [24:255 -1:255 32 0] 
r 1.040150829 _8_ RTR  --- 19 message 32 [0 ffffffff 18 800] ------- [24:255 -1:255 32 0] 
r 1.040150884 _12_ RTR  --- 19 message 32 [0 ffffffff 18 800] ------- [24:255 -1:255 32 0] 
r 1.040151099 _22_ RTR  --- 19 message 32 [0 ffffffff 18 800] ------- [24:255 -1:255 32 0] 
s 1.119657716 _1_ RTR  --- 20 message 32 [0 0 0 0] ------- [1:255 -1:255 32 0] 
s 1.119832716 _1_ MAC  --- 20 message 90 [0 ffffffff 1 800] ------- [1:255 -1:255 32 0] 
r 1.120553056 _27_ MAC  --- 20 message 32 [0 ffffffff 1 800] ------- [1:255 -1:255 32 0] 
r 1.120553815 _22_ MAC  --- 20 message 32 [0 ffffffff 1 800] ------- [1:255 -1:255 32 0] 
r 1.120553862 _15_ MAC  --- 20 message 32 [0 ffffffff 1 800] ------- [1:255 -1:255 32 0] 
r 1.120554001 _7_ MAC  --- 20 message 32 [0 ffffffff 1 800] ------- [1:255 -1:255 32 0] 
r 1.120578056 _27_ RTR  --- 20 message 32 [0 ffffffff 1 800] ------- [1:255 -1:255 32 0] 
r 1.120578815 _22_ RTR  --- 20 message 32 [0 ffffffff 1 800] ------- [1:255 -1:255 32 0] 
r 1.120578862 _15_ RTR  --- 20 message 32 [0 ffffffff 1 800] ------- [1:255 -1:255 32 0] 
r 1.120579001 _7_ RTR  --- 20 message 32 [0 ffffffff 1 800] ------- [1:255 -1:255 32 0] 
s 1.277890258 _9_ RTR  --- 21 message 32 [0 0 0 0] ------- [9:255 -1:255 32 0] 
s 1.278565258 _9_ MAC  --- 21 message 90 [0 ffffffff 9 800] ------- [9:255 -1:255 32 0] 
r 1.279285425 _4_ MAC  --- 21 message 32 [0 ffffffff 9 800] ------- [9:255 -1:255 32 0] 
r 1.279285882 _17_ MAC  --- 21 message 32 [0 ffffffff 9 800] ------- [9:255 -1:255 32 0] 
r 1.279285990 _25_ MAC  --- 21 message 32 [0 ffffffff 9 800] ------- [9:255 -1:255 32 0] 
r 1.279286245 _0_ MAC  --- 21 message 32 [0 ffffffff 9 800] ------- [9:255 -1:255 32 0] 
r 1.279286246 _24_ MAC  --- 21 message 32 [0 ffffffff 9 800] ------- [9:255 -1:255 32 0] 
r 1.279286308 _22_ MAC  --- 21 message 32 [0 ffffffff 9 800] ------- [9:255 -1:255 32 0] 
r 1.279286322 _11_ MAC  --- 21 message 32 [0 ffffffff 9 800] ------- [9:255 -1:255 32 0] 
r 1.279286383 _26_ MAC  --- 21 message 32 [0 ffffffff 9 800] ------- [9:255 -1:255 32 0] 
r 1.279286542 _5_ MAC  --- 21 message 32 [0 ffffffff 9 800] ------- [9:255 -1:255 32 0] 
r 1.279286544 _16_ MAC  --- 21 message 32 [0 ffffffff 9 800] ------- [9:255 -1:255 32 0] 
r 1.279310425 _4_ RTR  --- 21 message 32 [0 ffffffff 9 800] ------- [9:255 -1:255 32 0] 
r 1.279310882 _17_ RTR  --- 21 message 32 [0 ffffffff 9 800] ------- [9:255 -1:255 32 0] 
r 1.279310990 _25_ RTR  --- 21 message 32 [0 ffffffff 9 800] ------- [9:255 -1:255 32 0] 
r 1.279311245 _0_ RTR  --- 21 message 32 [0 ffffffff 9 800] ------- [9:255 -1:255 32 0] 
r 1.279311246 _24_ RTR  --- 21 message 32 [0 ffffffff 9 800] ------- [9:255 -1:255 32 0] 
r 1.279311308 _22_ RTR  --- 21 message 32 [0 ffffffff 9 800] ------- [9:255 -1:255 32 0] 
r 1.279311322 _11_ RTR  --- 21 message 32 [0 ffffffff 9 800] ------- [9:255 -1:255 32 0] 
r 1.279311383 _26_ RTR  --- 21 message 32 [0 ffffffff 9 800] ------- [9:255 -1:255 32 0] 
r 1.279311542 _5_ RTR  --- 21 message 32 [0 ffffffff 9 800] ------- [9:255 -1:255 32 0] 
r 1.279311544 _16_ RTR  --- 21 message 32 [0 ffffffff 9 800] ------- [9:255 -1:255 32 0] 
s 1.281327089 _14_ RTR  --- 22 message 32 [0 0 0 0] ------- [14:255 -1:255 32 0] 
s 1.281462089 _14_ MAC  --- 22 message 90 [0 ffffffff e 800] ------- [14:255 -1:255 32 0] 
r 1.282182168 _13_ MAC  --- 22 message 32 [0 ffffffff e 800] ------- [14:255 -1:255 32 0] 
r 1.282182555 _10_ MAC  --- 22 message 32 [0 ffffffff e 800] ------- [14:255 -1:255 32 0] 
r 1.282182667 _18_ MAC  --- 22 message 32 [0 ffffffff e 800] ------- [14:255 -1:255 32 0] 
r 1.282182705 _29_ MAC  --- 22 message 32 [0 ffffffff e 800] ------- [14:255 -1:255 32 0] 
r 1.282183298 _21_ MAC  --- 22 message 32 [0 ffffffff e 800] ------- [14:255 -1:255 32 0] 
r 1.282207168 _13_ RTR  --- 22 message 32 [0 ffffffff e 800] ------- [14:255 -1:255 32 0] 
r 1.282207555 _10_ RTR  --- 22 message 32 [0 ffffffff e 800] ------- [14:255 -1:255 32 0] 
r 1.282207667 _18_ RTR  --- 22 message 32 [0 ffffffff e 800] ------- [14:255 -1:255 32 0] 
r 1.282207705 _29_ RTR  --- 22 message 32 [0 ffffffff e 800] ------- [14:255 -1:255 32 0] 
r 1.282208298 _21_ RTR  --- 22 message 32 [0 ffffffff e 800] ------- [14:255 -1:255 32 0] 
s 1.388842989 _26_ RTR  --- 23 message 32 [0 0 0 0] ------- [26:255 -1:255 32 0] 
s 1.389297989 _26_ MAC  --- 23 message 90 [0 ffffffff 1a 800] ------- [26:255 -1:255 32 0] 
r 1.390018192 _24_ MAC  --- 23 message 32 [0 ffffffff 1a 800] ------- [26:255 -1:255 32 0] 
r 1.390018487 _16_ MAC  --- 23 message 32 [0 ffffffff 1a 800] ------- [26:255 -1:255 32 0] 
r 1.390018963 _8_ MAC  --- 23 message 32 [0 ffffffff 1a 800] ------- [26:255 -1:255 32 0] 
r 1.390018965 _4_ MAC  --- 23 message 32 [0 ffffffff 1a 800] ------- [26:255 -1:255 32 0] 
r 1.390019012 _12_ MAC  --- 23 message 32 [0 ffffffff 1a 800] ------- [26:255 -1:255 32 0] 
r 1.390019113 _9_ MAC  --- 23 message 32 [0 ffffffff 1a 800] ------- [26:255 -1:255 32 0] 
r 1.390019316 _18_ MAC  --- 23 message 32 [0 ffffffff 1a 800] ------- [26:255 -1:255 32 0] 
r 1.390043192 _24_ RTR  --- 23 message 32 [0 ffffffff 1a 800] ------- [26:255 -1:255 32 0] 
r 1.390043487 _16_ RTR  --- 23 message 32 [0 ffffffff 1a 800] ------- [26:255 -1:255 32 0] 
r 1.390043963 _8_ RTR  --- 23 message 32 [0 ffffffff 1a 800] ------- [26:255 -1:255 32 0] 
r 1.390043965 _4_ RTR  --- 23 message 32 [0 ffffffff 1a 800] ------- [26:255 -1:255 32 0] 