D 0.00421 _26_ (0,-1->1,-1->4,-1->0,12.004212)
(my address : 26),Route table updated..
VWST 0.004211924394 frm 26 to 0 wst 6.000000000000 nxthp 0 [of 1]
D 0.03856 _26_ (2,-1->1,-1->4,-1->2,12.038559)
(my address : 26),Route table updated..
VWST 0.038559129092 frm 26 to 2 wst 6.000000000000 nxthp 2 [of 1]
D 0.08850 _26_ (13,-1->1,-1->4,-1->13,12.088503)
(my address : 26),Route table updated..
VWST 0.088503318980 frm 26 to 13 wst 6.000000000000 nxthp 13 [of 1]
D 0.17831 _26_ (3,-1->1,-1->4,-1->3,12.178306)
(my address : 26),Route table updated..
VWST 0.178306093668 frm 26 to 3 wst 6.000000000000 nxthp 3 [of 1]
D 0.19263 _26_ (19,-1->1,-1->4,-1->19,12.192634)
(my address : 26),Route table updated..
VWST 0.192634478087 frm 26 to 19 wst 6.000000000000 nxthp 19 [of 1]
D 0.23564 _26_ (15,-1->1,-1->4,-1->15,12.235644)
(my address : 26),Route table updated..
VWST 0.235643627740 frm 26 to 15 wst 6.000000000000 nxthp 15 [of 1]
D 0.33474 _26_ (12,-1->1,-1->4,-1->12,12.334740)
(my address : 26),Route table updated..
VWST 0.334739500118 frm 26 to 12 wst 6.000000000000 nxthp 12 [of 1]
D 0.35259 _26_ (18,-1->1,-1->4,-1->18,12.352593)
(my address : 26),Route table updated..
VWST 0.352593356270 frm 26 to 18 wst 6.000000000000 nxthp 18 [of 1]
D 0.43745 _26_ (29,-1->1,-1->4,-1->29,12.437447)
(my address : 26),Route table updated..
VWST 0.437446963537 frm 26 to 29 wst 6.000000000000 nxthp 29 [of 1]
D 0.47140 _26_ (8,-1->1,-1->4,-1->8,12.471398)
(my address : 26),Route table updated..
VWST 0.471397798337 frm 26 to 8 wst 6.000000000000 nxthp 8 [of 1]
D 0.52240 _26_ (22,-1->1,-1->4,-1->22,12.522405)
(my address : 26),Route table updated..
VWST 0.522404993772 frm 26 to 22 wst 6.000000000000 nxthp 22 [of 1]
D 0.62724 _26_ (10,-1->1,-1->4,-1->10,12.627242)
(my address : 26),Route table updated..
VWST 0.627242492287 frm 26 to 10 wst 6.000000000000 nxthp 10 [of 1]
D 0.63460 _26_ (6,-1->1,-1->4,-1->6,12.634604)
(my address : 26),Route table updated..
VWST 0.634604487348 frm 26 to 6 wst 6.000000000000 nxthp 6 [of 1]
D 0.70443 _26_ (21,-1->1,-1->4,-1->21,12.704427)
(my address : 26),Route table updated..
VWST 0.704426761893 frm 26 to 21 wst 6.000000000000 nxthp 21 [of 1]
D 0.82003 _26_ (23,-1->1,-1->4,-1->23,12.820031)
(my address : 26),Route table updated..
VWST 0.820031298257 frm 26 to 23 wst 6.000000000000 nxthp 23 [of 1]
D 0.84832 _26_ (17,-1->1,-1->4,-1->17,12.848315)
(my address : 26),Route table updated..
VWST 0.848315444281 frm 26 to 17 wst 6.000000000000 nxthp 17 [of 1]
D 0.89241 _26_ (4,-1->1,-1->4,-1->4,12.892407)
(my address : 26),Route table updated..
VWST 0.892406803540 frm 26 to 4 wst 6.000000000000 nxthp 4 [of 1]
D 0.93323 _26_ (25,-1->1,-1->4,-1->25,12.933226)
(my address : 26),Route table updated..
VWST 0.933225935954 frm 26 to 25 wst 6.000000000000 nxthp 25 [of 1]
D 1.04668 _26_ (24,-1->1,-1->4,-1->24,13.046676)
(my address : 26),Route table updated..
VWST 1.046676472072 frm 26 to 24 wst 6.000000000000 nxthp 24 [of 1]
D 1.11900 _26_ (1,-1->1,-1->4,-1->1,13.118995)
(my address : 26),Route table updated..
VWST 1.118995393502 frm 26 to 1 wst 6.000000000000 nxthp 1 [of 1]
D 1.28115 _26_ (9,-1->1,-1->4,-1->9,13.281147)
(my address : 26),Route table updated..
VWST 1.281147099239 frm 26 to 9 wst 6.000000000000 nxthp 9 [of 1]
D 1.28535 _26_ (14,-1->1,-1->4,-1->14,13.285348)
(my address : 26),Route table updated..
VWST 1.285348336866 frm 26 to 14 wst 6.000000000000 nxthp 14 [of 1]
D 1.60446 _26_ (5,-1->1,-1->4,-1->5,13.604459)
(my address : 26),Route table updated..
VWST 1.604459184850 frm 26 to 5 wst 6.000000000000 nxthp 5 [of 1]
D 1.64259 _26_ (7,-1->1,-1->4,-1->7,13.642586)
(my address : 26),Route table updated..
VWST 1.642586009427 frm 26 to 7 wst 6.000000000000 nxthp 7 [of 1]
D 1.67632 _26_ (11,-1->1,-1->4,-1->11,13.676316)
(my address : 26),Route table updated..
VWST 1.676315935196 frm 26 to 11 wst 6.000000000000 nxthp 11 [of 1]
D 1.72487 _26_ (16,-1->1,-1->4,-1->16,13.724874)
(my address : 26),Route table updated..
VWST 1.724874441009 frm 26 to 16 wst 6.000000000000 nxthp 16 [of 1]
D 1.73421 _26_ (27,-1->1,-1->4,-1->27,13.734209)
(my address : 20),Route table updated..
VWST 1.724874190406 frm 20 to 16 wst 6.000000000000 nxthp 16 [of 1]
D 1.73421 _20_ (27,-1->1,-1->4,-1->27,13.734209)
(my address : 20),Route table updated..
VWST 1.734209305947 frm 20 to 27 wst 6.000000000000 nxthp 27 [of 1]
D 11.65357 _20_ (3,1->1,4->6,3->3,22.153572)
(my address : 20),Route table updated..
VWST 11.653572469399 frm 20 to 3 wst 5.250000000000 nxthp 3 [of 1]
D 11.90270 _20_ (19,1->1,4->6,19->19,22.402695)
(my address : 20),Route table updated..
VWST 11.902695128963 frm 20 to 19 wst 5.250000000000 nxthp 19 [of 1]
D 12.26608 _20_ (4,1->1,4->6,4->4,22.766079)
(my address : 20),Route table updated..
VWST 12.266078571669 frm 20 to 4 wst 5.250000000000 nxthp 4 [of 1]
D 12.41944 _20_ (17,1->1,4->6,17->17,22.919439)
(my address : 20),Route table updated..
VWST 12.419439114448 frm 20 to 17 wst 5.250000000000 nxthp 17 [of 1]
D 12.59221 _20_ (9,1->1,4->6,9->9,23.092210)
(my address : 20),Route table updated..
VWST 12.592209721774 frm 20 to 9 wst 5.250000000000 nxthp 9 [of 1]
D 12.65308 _20_ (3,1->1,6->8,3->3,21.840579)
(my address : 20),Route table updated..
VWST 12.653079055100 frm 20 to 3 wst 4.593750000000 nxthp 3 [of 1]
D 12.80220 _20_ (2,1->1,4->6,2->2,23.302198)
(my address : 20),Route table updated..
VWST 12.802198436344 frm 20 to 2 wst 5.250000000000 nxthp 2 [of 1]
D 12.90713 _20_ (19,1->1,6->8,19->19,22.094628)
(my address : 20),Route table updated..
VWST 12.907128229302 frm 20 to 19 wst 4.593750000000 nxthp 19 [of 1]
D 12.93838 _20_ (24,1->1,4->6,24->24,23.438379)
(my address : 20),Route table updated..
VWST 12.938379275350 frm 20 to 24 wst 5.250000000000 nxthp 24 [of 1]
D 13.00720 _20_ (15,1->1,4->6,15->15,23.507199)
(my address : 20),Route table updated..
VWST 13.007198834055 frm 20 to 15 wst 5.250000000000 nxthp 15 [of 1]
D 13.01132 _20_ (29,1->1,4->6,29->29,23.511319)
(my address : 20),Route table updated..
VWST 13.011319471225 frm 20 to 29 wst 5.250000000000 nxthp 29 [of 1]
D 13.01370 _20_ (1,1->1,4->6,1->1,23.513703)
(my address : 20),Route table updated..
VWST 13.013702541971 frm 20 to 1 wst 5.250000000000 nxthp 1 [of 1]
D 13.01805 _20_ (22,1->1,4->6,22->22,23.518047)
(my address : 20),Route table updated..
VWST 13.018047397311 frm 20 to 22 wst 5.250000000000 nxthp 22 [of 1]
D 13.02011 _20_ (14,1->1,4->6,14->14,23.520105)
(my address : 20),Route table updated..
VWST 13.020105455572 frm 20 to 14 wst 5.250000000000 nxthp 14 [of 1]
D 13.02455 _20_ (16,1->1,4->6,16->16,23.524546)
(my address : 20),Route table updated..
VWST 13.024546349971 frm 20 to 16 wst 5.250000000000 nxthp 16 [of 1]
D 13.02857 _20_ (25,1->1,4->6,25->25,23.528568)
(my address : 20),Route table updated..
VWST 13.028567826590 frm 20 to 25 wst 5.250000000000 nxthp 25 [of 1]
D 13.03061 _20_ (7,1->1,4->6,7->7,23.530606)
(my address : 20),Route table updated..
VWST 13.030606180492 frm 20 to 7 wst 5.250000000000 nxthp 7 [of 1]
D 13.03257 _20_ (10,1->1,4->6,10->10,23.532569)
(my address : 20),Route table updated..
VWST 13.032568799300 frm 20 to 10 wst 5.250000000000 nxthp 10 [of 1]
D 13.03463 _20_ (27,1->1,4->6,27->27,23.534627)
(my address : 20),Route table updated..
VWST 13.034626822057 frm 20 to 27 wst 5.250000000000 nxthp 27 [of 1]
D 13.03659 _20_ (23,1->1,4->6,23->23,23.536590)
(my address : 20),Route table updated..
VWST 13.036589726231 frm 20 to 23 wst 5.250000000000 nxthp 23 [of 1]
D 13.04105 _20_ (12,1->1,4->6,12->12,23.541055)
(my address : 20),Route table updated..
VWST 13.041054895798 frm 20 to 12 wst 5.250000000000 nxthp 12 [of 1]
D 13.04304 _20_ (21,1->1,4->6,21->21,23.543037)
(my address : 20),Route table updated..
VWST 13.043036901792 frm 20 to 21 wst 5.250000000000 nxthp 21 [of 1]
D 14.44851 _20_ (0,1->1,4->6,0->0,24.948513)
(my address : 20),Route table updated..
VWST 14.448512548384 frm 20 to 0 wst 5.250000000000 nxthp 0 [of 1]
D 24.44447 _20_ (6,1->2,4->6,6->11,34.944470)
(my address : 20),Route table updated..
VWST 24.444470310801 frm 20 to 6 wst 5.250000000000 nxthp 11 [of 2]
D 24.44447 _20_ (11,1->1,4->8,11->11,34.944470)
(my address : 20),Route table updated..
VWST 24.444470310801 frfrm 26 to 20 wst 6.000000000000 nxthp 11 [of 2]
D 24.50084 _26_ (1,1->1,6->8,1->1,33.688341)
(my address : 26),Route table updated..
VWST 24.500840939220 frm 26 to 1 wst 4.593750000000 nxthp 1 [of 1]
D 24.54403 _26_ (8,1->1,4->8,8->8,35.044028)
(my address : 26),Route table updated..
VWST 24.544027720208 frm 26 to 8 wst 5.250000000000 nxthp 8 [of 1]
D 24.54785 _26_ (21,1->1,6->8,21->21,33.735354)
(my address : 26),Route table updated..
VWST 24.547854225646 frm 26 to 21 wst 4.593750000000 nxthp 21 [of 1]
D 24.63320 _26_ (5,1->2,4->6,5->18,35.133204)
(my address : 26),Route table updated..
VWST 24.633204404713 frm 26 to 5 wst 5.250000000000 nxthp 18 [of 2]
D 24.63320 _26_ (18,1->1,4->8,18->18,35.133204)
(my address : 26),Route table updated..
VWST 24.633204404713 frm 26 to 18 wst 5.250000000000 nxthp 18 [of 1]
D 24.63320 _26_ (29,1->2,4->6,29->18,35.133204)
(my address : 26),Route table updated..
VWST 24.633204404713 frm 26 to 29 wst 5.250000000000 nxthp 18 [of 2]
D 24.74360 _26_ (13,1->1,4->8,13->13,35.243595)
(my address : 26),Route table updated..
VWST 24.743595459439 frm 26 to 13 wst 5.250000000000 nxthp 13 [of 1]
D 24.75324 _26_ (14,1->1,6->8,14->14,33.940738)
(my address : 26),Route table updated..
VWST 24.753238073621 frm 26 to 14 wst 4.593750000000 nxthp 14 [of 1]
D 25.02934 _26_ (22,1->1,6->8,22->22,34.216837)
(my address : 26),Route table updated..
VWST 25.029337035611 frm 26 to 22 wst 4.593750000000 nxthp 22 [of 1]
D 25.12747 _26_ (9,1->1,6->8,9->9,34.314969)
(my address : 26),Route table updated..
VWST 25.127468954237 frm 26 to 9 wst 4.593750000000 nxthp 9 [of 1]
D 25.23064 _26_ (29,2->1,6->8,18->29,34.418137)
(my address : 26),Route table updated..
VWST 25.230636811014 frm 26 to 29 wst 4.593750000000 nxthp 29 [of 1]
D 25.34478 _26_ (17,1->1,6->8,17->17,34.532285)
(my address : 26),Route table updated..
VWST 25.344784788609 frm 26 to 17 wst 4.593750000000 nxthp 17 [of 1]
D 25.61612 _26_ (27,1->1,6->8,27->27,34.803620)
(my address : 26),Route table updated..
VWST 25.616120403658 frm 26 to 27 wst 4.593750000000 nxthp 27 [of 1]
D 25.89842 _26_ (2,1->1,6->8,2->2,35.085922)
(my address : 26),Route table updated..
VWST 25.898421663376 frm 26 to 2 wst 4.593750000000 nxthp 2 [of 1]
D 25.98874 _26_ (15,1->1,6->8,15->15,35.176237)
(my address : 26),Route table updated..
VWST 25.988737027456 frm 26 to 15 wst 4.593750000000 nxthp 15 [of 1]
D 25.99082 _26_ (19,1->1,8->10,19->19,34.029878)
(my address : 26),Route table updated..
VWST 25.990815127467 frm 26 to 19 wst 4.019531250000 nxthp 19 [of 1]
D 26.04368 _26_ (12,1->1,6->8,12->12,35.231181)
(my address : 26),Route table updated..
VWST 26.043681340609 frm 26 to 12 wst 4.593750000000 nxthp 12 [of 1]
D 26.29770 _26_ (10,1->1,6->8,10->10,35.485205)
(my address : 26),Route table updated..
VWST 26.297704950333 frm 26 to 10 wst 4.593750000000 nxthp 10 [of 1]
D 26.43674 _26_ (5,2->1,6->8,18->5,35.624238)
(my address : 26),Route table updated..
VWST 26.436738192486 frm 26 to 5 wst 4.593750000000 nxthp 5 [of 1]
D 26.49594 _26_ (16,1->1,6->8,16->16,35.683443)
(my address : 26),Route table updated..
VWST 26.495943136986 frm 26 to 16 wst 4.593750000000 nxthp 16 [of 1]
D 26.54563 _26_ (23,1->1,6->8,23->23,35.733129)
(my address : 26),Route table updated..
VWST 26.545629018366 frm 26 to 23 wst 4.593750000000 nxthp 23 [of 1]
D 26.72942 _26_ (25,1->1,6->8,25->25,35.916919)
(my address : 26),Route table updated..
VWST 26.729419190405 frm 26 to 25 wst 4.593750000000 nxthp 25 [of 1]
D 26.89643 _26_ (4,1->1,6->8,4->4,36.083928)
(my address : 26),Route table updated..
VWST 26.896427773037 frm 26 to 4 wst 4.593750000000 nxthp 4 [of 1]
D 26.91110 _26_ (7,1->1,6->8,7->7,36.098601)
(my address : 26),Route table updated..
VWST 26.911101180491 frm 26 to 7 wst 4.593750000000 nxthp 7 [of 1]
D 26.92751 _26_ (20,2->1,6->8,11->20,37.427508)
(my address : 26),Route table updated..
VWST 26.927507699485 frm 26 to 20 wst 5.250000000000 nxthp 20 [of 1]
D 27.38459 _26_ (24,1->1,6->8,24->24,36.572090)
(my address : 26),Route table updated..
VWST 27.384590465912 frm 26 to 24 wst 4.593750000000 nxthp 24 [of 1]
D d..
VWST 26.911100826084 frm 9 to 7 wst 4.593750000000 nxthp 7 [of 1]
D 26.92751 _9_ (20,1->1,6->8,20->20,36.115007)
(my address : 9),Route table updated..
VWST 26.927507464857 frm 9 to 20 wst 4.593750000000 nxthp 20 [of 1]
D 27.38459 _9_ (24,1->1,6->8,24->24,36.572090)
(my address : 9),Route table updated..
VWST 27.384590101074 frm 9 to 24 wst 4.593750000000 nxthp 24 [of 1]
D 27.46544 _9_ (0,1->1,6->8,0->0,36.652936)
(my address : 9),Route table updated..
VWST 27.465436372993 frm 9 to 0 wst 4.593750000000 nxthp 0 [of 1]
D 36.31014 _9_ (22,1->1,8->10,22->22,44.349204)
(my address : 9),Route table updated..
VWST 36.310141492752 frm 9 to 22 wst 4.019531250000 nxthp 22 [of 1]
D 36.33008 _9_ (13,1->1,8->10,13->13,45.517578)
(my address : 9),Route table updated..
VWST 36.330077831064 frm 9 to 13 wst 4.593750000000 nxthp 13 [of 1]
D 36.45337 _9_ (20,1->1,8->10,20->20,44.492430)
(my address : 9),Route table updated..
VWST 36.453367530543 frm 9 to 20 wst 4.019531250000 nxthp 20 [of 1]
D 36.45629 _9_ (26,1->1,8->10,26->26,44.495352)
(my address : 9),Route table updated..
VWST 36.456289568044 frm 9 to 26 wst 4.019531250000 nxthp 26 [of 1]
D 36.45985 _9_ (28,1->1,8->10,28->28,45.647348)
(my address : 9),Route table updated..
VWST 36.459847634534 frm 9 to 28 wst 4.593750000000 nxthp 28 [of 1]
D 36.73145 _9_ (14,1->1,8->10,14->14,44.770516)
(my address : 9),Route table updated..
VWST 36.731453525448 frm 9 to 14 wst 4.019531250000 nxthp 14 [of 1]
D 36.95118 _9_ (18,1->1,8->10,18->18,46.138683)
(my address : 9),Route table updated..
VWST 36.951182536731 frm 9 to 18 wst 4.593750000000 nxthp 18 [of 1]
D 37.34631 _9_ (1,1->1,8->10,1->1,45.385375)
(my address : 9),Route table updated..
VWST 37.346312300767 frm 9 to 1 wst 4.019531250000 nxthp 1 [of 1]
D 38.49867 _9_ (3,1->1,10->12,3->3,45.532850)
(my address : 9),Route table updated..
VWST 38.498670748915 frm 9 to 3 wst 3.517089843750 nxthp 3 [of 1]
D 38.54379 _9_ (8,1->1,8->10,8->8,47.731286)
(my address : 9),Route table updated..
VWST 38.543785686069 frm 9 to 8 wst 4.593750000000 nxthp 8 [of 1]
D 38.75990 _9_ (21,1->1,8->10,21->21,46.798965)
(my address : 9),Route table updated..
VWST 38.759902074166 frm 9 to 21 wst 4.019531250000 nxthp 21 [of 1]
D 38.77418 _9_ (11,1->1,8->10,11->11,47.961680)
(my address : 9),Route table updated..
VWST 38.774179606309 frm 9 to 11 wst 4.593750000000 nxthp 11 [of 1]
D 39.01487 _9_ (19,1->1,10->12,19->19,46.049046)
(my address : 9),Route table updated..
VWST 39.014865927245 frm 9 to 19 wst 3.517089843750 nxthp 19 [of 1]
D 39.19864 _9_ (15,1->1,8->10,15->15,47.237705)
(my address : 9),Route table updated..
VWST 39.198642202255 frm 9 to 15 wst 4.019531250000 nxthp 15 [of 1]
D 39.21748 _9_ (27,1->1,8->10,27->27,47.256541)
(my address : 9),Route table updated..
VWST 39.217478205307 frm 9 to 27 wst 4.019531250000 nxthp 27 [of 1]
D 39.25588 _9_ (5,1->1,8->10,5->5,47.294945)
(my address : 9),Route table updated..
VWST 39.255882156938 frm 9 to 5 wst 4.019531250000 nxthp 5 [of 1]
D 39.39445 _9_ (6,1->1,8->10,6->6,47.433516)
(my address : 9),Route table updated..
VWST 39.394453806940 frm 9 to 6 wst 4.019531250000 nxthp 6 [of 1]
D 39.61283 _9_ (12,1->1,8->10,12->12,47.651897)
(my address : 9),Route table updated..
VWST 39.612834544496 frm 9 to 12 wst 4.019531250000 nxthp 12 [of 1]
D 39.87052 _9_ (10,1->1,8->10,10->10,47.909584)
(my address : 9),Route table updated..
VWST 39.870521703315 frm 9 to 10 wst 4.019531250000 nxthp 10 [of 1]
D 40.14297 _9_ (2,1->1,8->10,2->2,48.182035)
(my address : 9),Route table updated..
VWST 40.142972864690 frm 9 to 2 wst 4.019531250000 nxthp 2 [of 1]
D 40.17690 _9_ (0,1->1,8->10,0->0,48.215960)
(my address : 9),Route table updated..
VWST 40.176897034162 frm 9 to 0 wst 4.019531250000 nxthp 0 [of 1]
D 40.18291 _9_ (23,1->1,8->10,23->23,48.221969)
(my address : 9),Route table updated..
VWST 40.182906415022 frm 9 to 23 wst 4.019531250000 nxthp 23 [of 1]
D 40.57706 _9_ (16,1->1,8->10,16->16,48.616119)
(my address : 9),Route table updated..
VWST 40.577056586106 frm 9 to 16 wst 4.019531250000 nxthp 16 [of 1]
D 40.90548 _9_ (25,1->1,8->10,25->25,8.221969)
(my address : 26),Route table updated..
VWST 40.182906085525 frm 26 to 23 wst 4.019531250000 nxthp 23 [of 1]
D 40.57706 _26_ (16,1->1,8->10,16->16,48.616119)
(my address : 26),Route table updated..
VWST 40.577056642945 frm 26 to 16 wst 4.019531250000 nxthp 16 [of 1]
D 40.90548 _26_ (25,1->1,8->10,25->25,48.944546)
(my address : 26),Route table updated..
VWST 40.905483985126 frm 26 to 25 wst 4.019531250000 nxthp 25 [of 1]
D 41.02643 _26_ (24,1->1,8->10,24->24,49.065496)
(my address : 26),Route table updated..
VWST 41.026433942562 frm 26 to 24 wst 4.019531250000 nxthp 24 [of 1]
D 41.67086 _26_ (4,1->1,8->10,4->4,49.709920)
(my address : 26),Route table updated..
VWST 41.670857253932 frm 26 to 4 wst 4.019531250000 nxthp 4 [of 1]
D 41.73918 _26_ (7,1->1,8->10,7->7,49.778245)
(my address : 26),Route table updated..
VWST 41.739182303848 frm 26 to 7 wst 4.019531250000 nxthp 7 [of 1]
D 48.67812 _26_ (1,1->1,10->12,1->1,55.712299)
(my address : 26),Route table updated..
VWST 48.678119306536 frm 26 to 1 wst 3.517089843750 nxthp 1 [of 1]
D 48.72337 _26_ (28,1->1,10->12,28->28,57.910875)
(my address : 26),Route table updated..
VWST 48.723374891006 frm 26 to 28 wst 4.593750000000 nxthp 28 [of 1]
D 49.14811 _26_ (18,1->1,10->12,18->18,57.187176)
(my address : 26),Route table updated..
VWST 49.148113094867 frm 26 to 18 wst 4.019531250000 nxthp 18 [of 1]
D 49.15575 _26_ (14,1->1,10->12,14->14,56.189933)
(my address : 26),Route table updated..
VWST 49.155753726450 frm 26 to 14 wst 3.517089843750 nxthp 14 [of 1]
D 50.24303 _26_ (20,1->1,10->12,20->20,58.282097)
(my address : 26),Route table updated..
VWST 50.243034102991 frm 26 to 20 wst 4.019531250000 nxthp 20 [of 1]
D 50.78304 _26_ (3,1->1,12->14,3->3,56.937950)
(my address : 26),Route table updated..
VWST 50.783042412248 frm 26 to 3 wst 3.077453613281 nxthp 3 [of 1]
D 51.29241 _26_ (17,1->1,10->12,17->17,58.326592)
(my address : 26),Route table updated..
VWST 51.292412291957 frm 26 to 17 wst 3.517089843750 nxthp 17 [of 1]
D 51.41323 _26_ (5,1->1,10->12,5->5,58.447409)
(my address : 26),Route table updated..
VWST 51.413229137651 frm 26 to 5 wst 3.517089843750 nxthp 5 [of 1]
D 51.50128 _26_ (21,1->1,10->12,21->21,58.535458)
(my address : 26),Route table updated..
VWST 51.501278175578 frm 26 to 21 wst 3.517089843750 nxthp 21 [of 1]
D 51.54124 _26_ (0,1->1,10->12,0->0,58.575420)
(my address : 26),Route table updated..
VWST 51.541240655095 frm 26 to 0 wst 3.517089843750 nxthp 0 [of 1]
D 51.72918 _26_ (23,1->1,10->12,23->23,58.763361)
(my address : 26),Route table updated..
VWST 51.729181009444 frm 26 to 23 wst 3.517089843750 nxthp 23 [of 1]
D 52.23464 _26_ (19,1->1,12->14,19->19,58.389551)
(my address : 26),Route table updated..
VWST 52.234643920743 frm 26 to 19 wst 3.077453613281 nxthp 19 [of 1]
D 52.49541 _26_ (16,1->1,10->12,16->16,59.529590)
(my address : 26),Route table updated..
VWST 52.495410196733 frm 26 to 16 wst 3.517089843750 nxthp 16 [of 1]
D 52.52506 _26_ (8,1->1,10->12,8->8,60.564120)
(my address : 26),Route table updated..
VWST 52.525057150880 frm 26 to 8 wst 4.019531250000 nxthp 8 [of 1]
D 52.82145 _26_ (11,1->1,10->12,11->11,60.860508)
(my address : 26),Route table updated..
VWST 52.821445252088 frm 26 to 11 wst 4.019531250000 nxthp 11 [of 1]
D 53.04414 _26_ (27,1->1,10->12,27->27,60.078316)
(my address : 26),Route table updated..
VWST 53.044136752496 frm 26 to 27 wst 3.517089843750 nxthp 27 [of 1]
D 53.44371 _26_ (29,1->1,10->12,29->29,60.477892)
(my address : 26),Route table updated..
VWST 53.443712235811 frm 26 to 29 wst 3.517089843750 nxthp 29 [of 1]
D 53.69990 _26_ (10,1->1,10->12,10->10,60.734082)
(my address : 26),Route table updated..
VWST 53.699902073277 frm 26 to 10 wst 3.517089843750 nxthp 10 [of 1]
D 53.75313 _26_ (12,1->1,10->12,12->12,60.787314)
(my address : 26),Route table updated..
VWST 53.753134202408 frm 26 to 12 wst 3.517089843750 nxthp 12 [of 1]
D 54.06087 _26_ (15,1->1,10->12,15->15,61.095045)
(my address : 26),Route table updated..
VWST 54.060865470201 frm 26 to 15 wst 3.517089843750 nxthp 15 [of 1]
D 54.22050 _26_ (6,1->1,10->12,6->6,61.254to 10 wst 3.517089843750 nxthp 10 [of 1]
D 53.75313 _0_ (12,1->1,10->12,12->12,60.787314)
(my address : 0),Route table updated..
VWST 53.753134396317 frm 0 to 12 wst 3.517089843750 nxthp 12 [of 1]
D 54.06086 _0_ (15,1->1,10->12,15->15,61.095045)
(my address : 0),Route table updated..
VWST 54.060864976380 frm 0 to 15 wst 3.517089843750 nxthp 15 [of 1]
D 54.22050 _0_ (6,1->1,10->12,6->6,61.254676)
(my address : 0),Route table updated..
VWST 54.220496292458 frm 0 to 6 wst 3.517089843750 nxthp 6 [of 1]
D 54.69705 _0_ (4,1->1,10->12,4->4,61.731225)
(my address : 0),Route table updated..
VWST 54.697045190591 frm 0 to 4 wst 3.517089843750 nxthp 4 [of 1]
D 54.82713 _0_ (24,1->1,10->12,24->24,61.861313)
(my address : 0),Route table updated..
VWST 54.827133328320 frm 0 to 24 wst 3.517089843750 nxthp 24 [of 1]
D 54.83732 _0_ (2,1->1,10->12,2->2,61.871503)
(my address : 0),Route table updated..
VWST 54.837323302297 frm 0 to 2 wst 3.517089843750 nxthp 2 [of 1]
D 55.32731 _0_ (25,1->1,10->12,25->25,62.361485)
(my address : 0),Route table updated..
VWST 55.327305089267 frm 0 to 25 wst 3.517089843750 nxthp 25 [of 1]
D 56.21197 _0_ (7,1->1,10->12,7->7,63.246153)
(my address : 0),Route table updated..
VWST 56.211973019762 frm 0 to 7 wst 3.517089843750 nxthp 7 [of 1]
1]
D 56.21197 _1_ (7,1->1,10->12,7->7,63.246153)
(my address : 1),Route table updated..
VWST 56.211973270206 frm 1 to 7 wst 3.517089843750 nxthp 7 [of 1]
 10),Route table updated..
VWST 54.837323128764 frm 10 to 2 wst 3.517089843750 nxthp 2 [of 1]
D 55.32730 _10_ (25,1->1,10->12,25->25,62.361485)
(my address : 10),Route table updated..
VWST 55.327304812586 frm 10 to 25 wst 3.517089843750 nxthp 25 [of 1]
21197 _11_ (7,1->1,10->12,7->7,63.246153)
(my address : 11),Route table updated..
VWST 56.211973293512 frm 11 to 7 wst 3.517089843750 nxthp 7 [of 1]
1]
