n -t * -s 0  -x 1098.0799999999999 -y 963.13999999999999 -Z 0 -z 100  -v circle -c black
n -t * -s 1  -x 69.810000000000002 -y 493.24000000000001 -Z 0 -z 100  -v circle -c black
n -t * -s 2  -x 290.69 -y 444.75 -Z 0 -z 100  -v circle -c black
n -t * -s 3  -x 1071.4400000000001 -y 1245.1700000000001 -Z 0 -z 100  -v circle -c black
n -t * -s 4  -x 998.27999999999997 -y 99.310000000000002 -Z 0 -z 100  -v circle -c black
n -t * -s 5  -x 1038.1099999999999 -y 840 -Z 0 -z 100  -v circle -c black
n -t * -s 6  -x 734.21000000000004 -y 656.77999999999997 -Z 0 -z 100  -v circle -c black
n -t * -s 7  -x 330.25 -y 1140.6099999999999 -Z 0 -z 100  -v circle -c black
n -t * -s 8  -x 1031.72 -y 1114 -Z 0 -z 100  -v circle -c black
n -t * -s 9  -x 350.85000000000002 -y 1350.05 -Z 0 -z 100  -v circle -c black
n -t * -s 10  -x 250.97999999999999 -y 244.91 -Z 0 -z 100  -v circle -c black
n -t * -s 11  -x 1085.4300000000001 -y 1352.73 -Z 0 -z 100  -v circle -c black
n -t * -s 12  -x 691.89999999999998 -y 1034.0599999999999 -Z 0 -z 100  -v circle -c black
n -t * -s 13  -x 288.11000000000001 -y 1256.8800000000001 -Z 0 -z 100  -v circle -c black
n -t * -s 14  -x 321.44999999999999 -y 156.78999999999999 -Z 0 -z 100  -v circle -c black
n -t * -s 15  -x 1188.0999999999999 -y 480.13999999999999 -Z 0 -z 100  -v circle -c black
n -t * -s 16  -x 773.07000000000005 -y 385.30000000000001 -Z 0 -z 100  -v circle -c black
n -t * -s 17  -x 604.49000000000001 -y 394.07999999999998 -Z 0 -z 100  -v circle -c black
n -t * -s 18  -x 1018.2 -y 1100.76 -Z 0 -z 100  -v circle -c black
n -t * -s 19  -x 635.85000000000002 -y 498.08999999999997 -Z 0 -z 100  -v circle -c black
n -t * -s 20  -x 268.18000000000001 -y 50.350000000000001 -Z 0 -z 100  -v circle -c black
n -t * -s 21  -x 400.80000000000001 -y 676.14999999999998 -Z 0 -z 100  -v circle -c black
n -t * -s 22  -x 55.729999999999997 -y 1017.84 -Z 0 -z 100  -v circle -c black
n -t * -s 23  -x 305.43000000000001 -y 455.23000000000002 -Z 0 -z 100  -v circle -c black
n -t * -s 24  -x 147.90000000000001 -y 820.25 -Z 0 -z 100  -v circle -c black
n -t * -s 25  -x 1144.71 -y 1364.6700000000001 -Z 0 -z 100  -v circle -c black
n -t * -s 26  -x 0 -y 0 -Z 0 -z 100  -v circle -c black
n -t * -s 27  -x 0 -y 0 -Z 0 -z 100  -v circle -c black
n -t * -s 28  -x 0 -y 1000 -Z 0 -z 100  -v circle -c black
n -t * -s 29  -x 1000 -y 0 -Z 0 -z 100  -v circle -c black
V -t * -v 1.0a5 -a 0
W -t * -x 1700 -y 1700
A -t * -n 1 -p 0 -o 0x7fffffff -c 30 -a 1
A -t * -h 1 -m 1073741823 -s 0
n -t 0.000000 -s 0 -x 1098.080000 -y 963.140000 -U 0.000000 -V 0.000000 -T 0.000000
n -t 0.000000 -s 1 -x 69.810000 -y 493.240000 -U 0.000000 -V 0.000000 -T 0.000000
n -t 0.000000 -s 2 -x 290.690000 -y 444.750000 -U 0.000000 -V 0.000000 -T 0.000000
n -t 0.000000 -s 3 -x 1071.440000 -y 1245.170000 -U 0.000000 -V 0.000000 -T 0.000000
n -t 0.000000 -s 4 -x 998.280000 -y 99.310000 -U 0.000000 -V 0.000000 -T 0.000000
n -t 0.000000 -s 5 -x 1038.110000 -y 840.000000 -U 0.000000 -V 0.000000 -T 0.000000
n -t 0.000000 -s 6 -x 734.210000 -y 656.780000 -U 0.000000 -V 0.000000 -T 0.000000
n -t 0.000000 -s 7 -x 330.250000 -y 1140.610000 -U 0.000000 -V 0.000000 -T 0.000000
n -t 0.000000 -s 8 -x 1031.720000 -y 1114.000000 -U 0.000000 -V 0.000000 -T 0.000000
n -t 0.000000 -s 9 -x 350.850000 -y 1350.050000 -U 0.000000 -V 0.000000 -T 0.000000
n -t 0.000000 -s 10 -x 250.980000 -y 244.910000 -U 0.000000 -V 0.000000 -T 0.000000
n -t 0.000000 -s 11 -x 1085.430000 -y 1352.730000 -U 0.000000 -V 0.000000 -T 0.000000
n -t 0.000000 -s 12 -x 691.900000 -y 1034.060000 -U 0.000000 -V 0.000000 -T 0.000000
n -t 0.000000 -s 13 -x 288.110000 -y 1256.880000 -U 0.000000 -V 0.000000 -T 0.000000
n -t 0.000000 -s 14 -x 321.450000 -y 156.790000 -U 0.000000 -V 0.000000 -T 0.000000
n -t 0.000000 -s 15 -x 1188.100000 -y 480.140000 -U 0.000000 -V 0.000000 -T 0.000000
n -t 0.000000 -s 16 -x 773.070000 -y 385.300000 -U 0.000000 -V 0.000000 -T 0.000000
n -t 0.000000 -s 17 -x 604.490000 -y 394.080000 -U 0.000000 -V 0.000000 -T 0.000000
n -t 0.000000 -s 18 -x 1018.200000 -y 1100.760000 -U 0.000000 -V 0.000000 -T 0.000000
n -t 0.000000 -s 19 -x 635.850000 -y 498.090000 -U 0.000000 -V 0.000000 -T 0.000000
n -t 0.000000 -s 20 -x 268.180000 -y 50.350000 -U 0.000000 -V 0.000000 -T 0.000000
n -t 0.000000 -s 21 -x 400.800000 -y 676.150000 -U 0.000000 -V 0.000000 -T 0.000000
n -t 0.000000 -s 22 -x 55.730000 -y 1017.840000 -U 0.000000 -V 0.000000 -T 0.000000
n -t 0.000000 -s 23 -x 305.430000 -y 455.230000 -U 0.000000 -V 0.000000 -T 0.000000
n -t 0.000000 -s 24 -x 147.900000 -y 820.250000 -U 0.000000 -V 0.000000 -T 0.000000
n -t 0.000000 -s 25 -x 1144.710000 -y 1364.670000 -U 0.000000 -V 0.000000 -T 0.000000
n -t 0.000000 -s 0 -x 1098.080000 -y 963.140000 -U 0.000000 -V 0.000000 -T 0.000000
n -t 0.000000 -s 1 -x 69.810000 -y 493.240000 -U 0.000000 -V 0.000000 -T 0.000000
+ -t 0.003091411 -s 0 -d -1 -p message -e 32 -c 2 -a 0 -i 0 -k RTR 
- -t 0.003091411 -s 0 -d -1 -p message -e 32 -c 2 -a 0 -i 0 -k RTR
h -t 0.003091411 -s 0 -d -1 -p message -e 32 -c 2 -a 0 -i 0 -k RTR
+ -t 0.003466411 -s 0 -d -1 -p message -e 90 -c 2 -a 0 -i 0 -k MAC 
- -t 0.003466411 -s 0 -d -1 -p message -e 90 -c 2 -a 0 -i 0 -k MAC
h -t 0.003466411 -s 0 -d -1 -p message -e 90 -c 2 -a 0 -i 0 -k MAC
r -t 0.004186867 -s 5 -d -1 -p message -e 32 -c 2 -a 0 -i 0 -k MAC
r -t 0.004186941 -s 18 -d -1 -p message -e 32 -c 2 -a 0 -i 0 -k MAC
r -t 0.004186960 -s 8 -d -1 -p message -e 32 -c 2 -a 0 -i 0 -k MAC
r -t 0.004187355 -s 3 -d -1 -p message -e 32 -c 2 -a 0 -i 0 -k MAC
r -t 0.004187710 -s 11 -d -1 -p message -e 32 -c 2 -a 0 -i 0 -k MAC
r -t 0.004211867 -s 5 -d -1 -p message -e 32 -c 2 -a 0 -i 0 -k RTR
r -t 0.004211941 -s 18 -d -1 -p message -e 32 -c 2 -a 0 -i 0 -k RTR
r -t 0.004211960 -s 8 -d -1 -p message -e 32 -c 2 -a 0 -i 0 -k RTR
r -t 0.004212355 -s 3 -d -1 -p message -e 32 -c 2 -a 0 -i 0 -k RTR
r -t 0.004212710 -s 11 -d -1 -p message -e 32 -c 2 -a 0 -i 0 -k RTR
+ -t 0.037458776 -s 2 -d -1 -p message -e 32 -c 2 -a 0 -i 1 -k RTR 
- -t 0.037458776 -s 2 -d -1 -p message -e 32 -c 2 -a 0 -i 1 -k RTR
h -t 0.037458776 -s 2 -d -1 -p message -e 32 -c 2 -a 0 -i 1 -k RTR
+ -t 0.037813776 -s 2 -d -1 -p message -e 90 -c 2 -a 0 -i 1 -k MAC 
- -t 0.037813776 -s 2 -d -1 -p message -e 90 -c 2 -a 0 -i 1 -k MAC
h -t 0.037813776 -s 2 -d -1 -p message -e 90 -c 2 -a 0 -i 1 -k MAC
r -t 0.038533836 -s 23 -d -1 -p message -e 32 -c 2 -a 0 -i 1 -k MAC
r -t 0.038534455 -s 10 -d -1 -p message -e 32 -c 2 -a 0 -i 1 -k MAC
r -t 0.038534530 -s 1 -d -1 -p message -e 32 -c 2 -a 0 -i 1 -k MAC
r -t 0.038534630 -s 21 -d -1 -p message -e 32 -c 2 -a 0 -i 1 -k MAC
r -t 0.038534741 -s 14 -d -1 -p message -e 32 -c 2 -a 0 -i 1 -k MAC
r -t 0.038534836 -s 17 -d -1 -p message -e 32 -c 2 -a 0 -i 1 -k MAC
r -t 0.038534940 -s 19 -d -1 -p message -e 32 -c 2 -a 0 -i 1 -k MAC
r -t 0.038535093 -s 20 -d -1 -p message -e 32 -c 2 -a 0 -i 1 -k MAC
r -t 0.038558836 -s 23 -d -1 -p message -e 32 -c 2 -a 0 -i 1 -k RTR
r -t 0.038559455 -s 10 -d -1 -p message -e 32 -c 2 -a 0 -i 1 -k RTR
r -t 0.038559530 -s 1 -d -1 -p message -e 32 -c 2 -a 0 -i 1 -k RTR
r -t 0.038559630 -s 21 -d -1 -p message -e 32 -c 2 -a 0 -i 1 -k RTR
r -t 0.038559741 -s 14 -d -1 -p message -e 32 -c 2 -a 0 -i 1 -k RTR
r -t 0.038559836 -s 17 -d -1 -p message -e 32 -c 2 -a 0 -i 1 -k RTR
r -t 0.038559940 -s 19 -d -1 -p message -e 32 -c 2 -a 0 -i 1 -k RTR
r -t 0.038560093 -s 20 -d -1 -p message -e 32 -c 2 -a 0 -i 1 -k RTR
+ -t 0.087462768 -s 13 -d -1 -p message -e 32 -c 2 -a 0 -i 2 -k RTR 
- -t 0.087462768 -s 13 -d -1 -p message -e 32 -c 2 -a 0 -i 2 -k RTR
h -t 0.087462768 -s 13 -d -1 -p message -e 32 -c 2 -a 0 -i 2 -k RTR
+ -t 0.087757768 -s 13 -d -1 -p message -e 90 -c 2 -a 0 -i 2 -k MAC 
- -t 0.087757768 -s 13 -d -1 -p message -e 90 -c 2 -a 0 -i 2 -k MAC
h -t 0.087757768 -s 13 -d -1 -p message -e 90 -c 2 -a 0 -i 2 -k MAC
r -t 0.088478142 -s 9 -d -1 -p message -e 32 -c 2 -a 0 -i 2 -k MAC
r -t 0.088478180 -s 7 -d -1 -p message -e 32 -c 2 -a 0 -i 2 -k MAC
r -t 0.088478879 -s 22 -d -1 -p message -e 32 -c 2 -a 0 -i 2 -k MAC
r -t 0.088479055 -s 28 -d -1 -p message -e 32 -c 2 -a 0 -i 2 -k MAC
r -t 0.088503142 -s 9 -d -1 -p message -e 32 -c 2 -a 0 -i 2 -k RTR
r -t 0.088503180 -s 7 -d -1 -p message -e 32 -c 2 -a 0 -i 2 -k RTR
r -t 0.088503879 -s 22 -d -1 -p message -e 32 -c 2 -a 0 -i 2 -k RTR
r -t 0.088504055 -s 28 -d -1 -p message -e 32 -c 2 -a 0 -i 2 -k RTR
+ -t 0.177365656 -s 3 -d -1 -p message -e 32 -c 2 -a 0 -i 3 -k RTR 
- -t 0.177365656 -s 3 -d -1 -p message -e 32 -c 2 -a 0 -i 3 -k RTR
h -t 0.177365656 -s 3 -d -1 -p message -e 32 -c 2 -a 0 -i 3 -k RTR
+ -t 0.177560656 -s 3 -d -1 -p message -e 90 -c 2 -a 0 -i 3 -k MAC 
- -t 0.177560656 -s 3 -d -1 -p message -e 90 -c 2 -a 0 -i 3 -k MAC
h -t 0.177560656 -s 3 -d -1 -p message -e 90 -c 2 -a 0 -i 3 -k MAC
r -t 0.178281017 -s 11 -d -1 -p message -e 32 -c 2 -a 0 -i 3 -k MAC
r -t 0.178281113 -s 8 -d -1 -p message -e 32 -c 2 -a 0 -i 3 -k MAC
r -t 0.178281123 -s 25 -d -1 -p message -e 32 -c 2 -a 0 -i 3 -k MAC
r -t 0.178281169 -s 18 -d -1 -p message -e 32 -c 2 -a 0 -i 3 -k MAC
r -t 0.178281600 -s 0 -d -1 -p message -e 32 -c 2 -a 0 -i 3 -k MAC
r -t 0.178306017 -s 11 -d -1 -p message -e 32 -c 2 -a 0 -i 3 -k RTR
r -t 0.178306113 -s 8 -d -1 -p message -e 32 -c 2 -a 0 -i 3 -k RTR
r -t 0.178306123 -s 25 -d -1 -p message -e 32 -c 2 -a 0 -i 3 -k RTR
r -t 0.178306169 -s 18 -d -1 -p message -e 32 -c 2 -a 0 -i 3 -k RTR
r -t 0.178306600 -s 0 -d -1 -p message -e 32 -c 2 -a 0 -i 3 -k RTR
+ -t 0.191634337 -s 19 -d -1 -p message -e 32 -c 2 -a 0 -i 4 -k RTR 
- -t 0.191634337 -s 19 -d -1 -p message -e 32 -c 2 -a 0 -i 4 -k RTR
h -t 0.191634337 -s 19 -d -1 -p message -e 32 -c 2 -a 0 -i 4 -k RTR
+ -t 0.191889337 -s 19 -d -1 -p message -e 90 -c 2 -a 0 -i 4 -k MAC 
- -t 0.191889337 -s 19 -d -1 -p message -e 90 -c 2 -a 0 -i 4 -k MAC
h -t 0.191889337 -s 19 -d -1 -p message -e 90 -c 2 -a 0 -i 4 -k MAC
r -t 0.192609699 -s 17 -d -1 -p message -e 32 -c 2 -a 0 -i 4 -k MAC
r -t 0.192609929 -s 16 -d -1 -p message -e 32 -c 2 -a 0 -i 4 -k MAC
r -t 0.192609959 -s 6 -d -1 -p message -e 32 -c 2 -a 0 -i 4 -k MAC
r -t 0.192610320 -s 21 -d -1 -p message -e 32 -c 2 -a 0 -i 4 -k MAC
r -t 0.192610447 -s 23 -d -1 -p message -e 32 -c 2 -a 0 -i 4 -k MAC
r -t 0.192610501 -s 2 -d -1 -p message -e 32 -c 2 -a 0 -i 4 -k MAC
r -t 0.192634699 -s 17 -d -1 -p message -e 32 -c 2 -a 0 -i 4 -k RTR
r -t 0.192634929 -s 16 -d -1 -p message -e 32 -c 2 -a 0 -i 4 -k RTR
r -t 0.192634959 -s 6 -d -1 -p message -e 32 -c 2 -a 0 -i 4 -k RTR
r -t 0.192635320 -s 21 -d -1 -p message -e 32 -c 2 -a 0 -i 4 -k RTR
r -t 0.192635447 -s 23 -d -1 -p message -e 32 -c 2 -a 0 -i 4 -k RTR
r -t 0.192635501 -s 2 -d -1 -p message -e 32 -c 2 -a 0 -i 4 -k RTR
+ -t 0.234603229 -s 15 -d -1 -p message -e 32 -c 2 -a 0 -i 5 -k RTR 
- -t 0.234603229 -s 15 -d -1 -p message -e 32 -c 2 -a 0 -i 5 -k RTR
h -t 0.234603229 -s 15 -d -1 -p message -e 32 -c 2 -a 0 -i 5 -k RTR
+ -t 0.234898229 -s 15 -d -1 -p message -e 90 -c 2 -a 0 -i 5 -k MAC 
- -t 0.234898229 -s 15 -d -1 -p message -e 90 -c 2 -a 0 -i 5 -k MAC
h -t 0.234898229 -s 15 -d -1 -p message -e 90 -c 2 -a 0 -i 5 -k MAC
r -t 0.235619529 -s 5 -d -1 -p message -e 32 -c 2 -a 0 -i 5 -k MAC
r -t 0.235644529 -s 5 -d -1 -p message -e 32 -c 2 -a 0 -i 5 -k RTR
+ -t 0.333839210 -s 12 -d -1 -p message -e 32 -c 2 -a 0 -i 6 -k RTR 
- -t 0.333839210 -s 12 -d -1 -p message -e 32 -c 2 -a 0 -i 6 -k RTR
h -t 0.333839210 -s 12 -d -1 -p message -e 32 -c 2 -a 0 -i 6 -k RTR
+ -t 0.333994210 -s 12 -d -1 -p message -e 90 -c 2 -a 0 -i 6 -k MAC 
- -t 0.333994210 -s 12 -d -1 -p message -e 90 -c 2 -a 0 -i 6 -k MAC
h -t 0.333994210 -s 12 -d -1 -p message -e 90 -c 2 -a 0 -i 6 -k MAC
r -t 0.334715320 -s 18 -d -1 -p message -e 32 -c 2 -a 0 -i 6 -k MAC
r -t 0.334715374 -s 8 -d -1 -p message -e 32 -c 2 -a 0 -i 6 -k MAC
r -t 0.334715467 -s 7 -d -1 -p message -e 32 -c 2 -a 0 -i 6 -k MAC
r -t 0.334715475 -s 6 -d -1 -p message -e 32 -c 2 -a 0 -i 6 -k MAC
r -t 0.334715533 -s 5 -d -1 -p message -e 32 -c 2 -a 0 -i 6 -k MAC
r -t 0.334740320 -s 18 -d -1 -p message -e 32 -c 2 -a 0 -i 6 -k RTR
r -t 0.334740374 -s 8 -d -1 -p message -e 32 -c 2 -a 0 -i 6 -k RTR
r -t 0.334740467 -s 7 -d -1 -p message -e 32 -c 2 -a 0 -i 6 -k RTR
r -t 0.334740475 -s 6 -d -1 -p message -e 32 -c 2 -a 0 -i 6 -k RTR
r -t 0.334740533 -s 5 -d -1 -p message -e 32 -c 2 -a 0 -i 6 -k RTR
+ -t 0.351472650 -s 18 -d -1 -p message -e 32 -c 2 -a 0 -i 7 -k RTR 
- -t 0.351472650 -s 18 -d -1 -p message -e 32 -c 2 -a 0 -i 7 -k RTR
h -t 0.351472650 -s 18 -d -1 -p message -e 32 -c 2 -a 0 -i 7 -k RTR
+ -t 0.351847650 -s 18 -d -1 -p message -e 90 -c 2 -a 0 -i 7 -k MAC 
- -t 0.351847650 -s 18 -d -1 -p message -e 90 -c 2 -a 0 -i 7 -k MAC
h -t 0.351847650 -s 18 -d -1 -p message -e 90 -c 2 -a 0 -i 7 -k MAC
r -t 0.352567713 -s 8 -d -1 -p message -e 32 -c 2 -a 0 -i 7 -k MAC
r -t 0.352568163 -s 3 -d -1 -p message -e 32 -c 2 -a 0 -i 7 -k MAC
r -t 0.352568181 -s 0 -d -1 -p message -e 32 -c 2 -a 0 -i 7 -k MAC
r -t 0.352568519 -s 11 -d -1 -p message -e 32 -c 2 -a 0 -i 7 -k MAC
r -t 0.352568522 -s 5 -d -1 -p message -e 32 -c 2 -a 0 -i 7 -k MAC
r -t 0.352568626 -s 25 -d -1 -p message -e 32 -c 2 -a 0 -i 7 -k MAC
r -t 0.352568760 -s 12 -d -1 -p message -e 32 -c 2 -a 0 -i 7 -k MAC
r -t 0.352592713 -s 8 -d -1 -p message -e 32 -c 2 -a 0 -i 7 -k RTR
r -t 0.352593163 -s 3 -d -1 -p message -e 32 -c 2 -a 0 -i 7 -k RTR
r -t 0.352593181 -s 0 -d -1 -p message -e 32 -c 2 -a 0 -i 7 -k RTR
r -t 0.352593519 -s 11 -d -1 -p message -e 32 -c 2 -a 0 -i 7 -k RTR
r -t 0.352593522 -s 5 -d -1 -p message -e 32 -c 2 -a 0 -i 7 -k RTR
r -t 0.352593626 -s 25 -d -1 -p message -e 32 -c 2 -a 0 -i 7 -k RTR
r -t 0.352593760 -s 12 -d -1 -p message -e 32 -c 2 -a 0 -i 7 -k RTR
+ -t 0.436386259 -s 29 -d -1 -p message -e 32 -c 2 -a 0 -i 8 -k RTR 
- -t 0.436386259 -s 29 -d -1 -p message -e 32 -c 2 -a 0 -i 8 -k RTR
h -t 0.436386259 -s 29 -d -1 -p message -e 32 -c 2 -a 0 -i 8 -k RTR
+ -t 0.436701259 -s 29 -d -1 -p message -e 90 -c 2 -a 0 -i 8 -k MAC 
- -t 0.436701259 -s 29 -d -1 -p message -e 90 -c 2 -a 0 -i 8 -k MAC
h -t 0.436701259 -s 29 -d -1 -p message -e 90 -c 2 -a 0 -i 8 -k MAC
r -t 0.437421590 -s 4 -d -1 -p message -e 32 -c 2 -a 0 -i 8 -k MAC
r -t 0.437446590 -s 4 -d -1 -p message -e 32 -c 2 -a 0 -i 8 -k RTR
+ -t 0.470117073 -s 8 -d -1 -p message -e 32 -c 2 -a 0 -i 9 -k RTR 
- -t 0.470117073 -s 8 -d -1 -p message -e 32 -c 2 -a 0 -i 9 -k RTR
h -t 0.470117073 -s 8 -d -1 -p message -e 32 -c 2 -a 0 -i 9 -k RTR
+ -t 0.470652073 -s 8 -d -1 -p message -e 90 -c 2 -a 0 -i 9 -k MAC 
- -t 0.470652073 -s 8 -d -1 -p message -e 90 -c 2 -a 0 -i 9 -k MAC
h -t 0.470652073 -s 8 -d -1 -p message -e 90 -c 2 -a 0 -i 9 -k MAC
r -t 0.471372136 -s 18 -d -1 -p message -e 32 -c 2 -a 0 -i 9 -k MAC
r -t 0.471372530 -s 3 -d -1 -p message -e 32 -c 2 -a 0 -i 9 -k MAC
r -t 0.471372622 -s 0 -d -1 -p message -e 32 -c 2 -a 0 -i 9 -k MAC
r -t 0.471372889 -s 11 -d -1 -p message -e 32 -c 2 -a 0 -i 9 -k MAC
r -t 0.471372986 -s 5 -d -1 -p message -e 32 -c 2 -a 0 -i 9 -k MAC
r -t 0.471372989 -s 25 -d -1 -p message -e 32 -c 2 -a 0 -i 9 -k MAC
r -t 0.471373237 -s 12 -d -1 -p message -e 32 -c 2 -a 0 -i 9 -k MAC
r -t 0.471397136 -s 18 -d -1 -p message -e 32 -c 2 -a 0 -i 9 -k RTR
r -t 0.471397530 -s 3 -d -1 -p message -e 32 -c 2 -a 0 -i 9 -k RTR
r -t 0.471397622 -s 0 -d -1 -p message -e 32 -c 2 -a 0 -i 9 -k RTR
r -t 0.471397889 -s 11 -d -1 -p message -e 32 -c 2 -a 0 -i 9 -k RTR
r -t 0.471397986 -s 5 -d -1 -p message -e 32 -c 2 -a 0 -i 9 -k RTR
r -t 0.471397989 -s 25 -d -1 -p message -e 32 -c 2 -a 0 -i 9 -k RTR
r -t 0.471398237 -s 12 -d -1 -p message -e 32 -c 2 -a 0 -i 9 -k RTR
+ -t 0.521504883 -s 22 -d -1 -p message -e 32 -c 2 -a 0 -i 10 -k RTR 
- -t 0.521504883 -s 22 -d -1 -p message -e 32 -c 2 -a 0 -i 10 -k RTR
h -t 0.521504883 -s 22 -d -1 -p message -e 32 -c 2 -a 0 -i 10 -k RTR
+ -t 0.521659883 -s 22 -d -1 -p message -e 90 -c 2 -a 0 -i 10 -k MAC 
- -t 0.521659883 -s 22 -d -1 -p message -e 90 -c 2 -a 0 -i 10 -k MAC
h -t 0.521659883 -s 22 -d -1 -p message -e 90 -c 2 -a 0 -i 10 -k MAC
r -t 0.522380078 -s 28 -d -1 -p message -e 32 -c 2 -a 0 -i 10 -k MAC
r -t 0.522380610 -s 24 -d -1 -p message -e 32 -c 2 -a 0 -i 10 -k MAC
r -t 0.522380886 -s 7 -d -1 -p message -e 32 -c 2 -a 0 -i 10 -k MAC
r -t 0.522380994 -s 13 -d -1 -p message -e 32 -c 2 -a 0 -i 10 -k MAC
r -t 0.522405078 -s 28 -d -1 -p message -e 32 -c 2 -a 0 -i 10 -k RTR
r -t 0.522405610 -s 24 -d -1 -p message -e 32 -c 2 -a 0 -i 10 -k RTR
r -t 0.522405886 -s 7 -d -1 -p message -e 32 -c 2 -a 0 -i 10 -k RTR
r -t 0.522405994 -s 13 -d -1 -p message -e 32 -c 2 -a 0 -i 10 -k RTR
+ -t 0.556838879 -s 28 -d -1 -p cbr -e 512 -c 2 -a 0 -i 11 -k AGT 
- -t 0.556838879 -s 28 -d -1 -p cbr -e 512 -c 2 -a 0 -i 11 -k AGT
h -t 0.556838879 -s 28 -d -1 -p cbr -e 512 -c 2 -a 0 -i 11 -k AGT
+ -t 0.627186592 -s 10 -d -1 -p message -e 32 -c 2 -a 0 -i 12 -k RTR 
- -t 0.627186592 -s 10 -d -1 -p message -e 32 -c 2 -a 0 -i 12 -k RTR
h -t 0.627186592 -s 10 -d -1 -p message -e 32 -c 2 -a 0 -i 12 -k RTR
+ -t 0.627321592 -s 10 -d -1 -p message -e 90 -c 2 -a 0 -i 12 -k MAC 
- -t 0.627321592 -s 10 -d -1 -p message -e 90 -c 2 -a 0 -i 12 -k MAC
h -t 0.627321592 -s 10 -d -1 -p message -e 90 -c 2 -a 0 -i 12 -k MAC
r -t 0.628041968 -s 14 -d -1 -p message -e 32 -c 2 -a 0 -i 12 -k MAC
r -t 0.628042243 -s 20 -d -1 -p message -e 32 -c 2 -a 0 -i 12 -k MAC
r -t 0.628042271 -s 2 -d -1 -p message -e 32 -c 2 -a 0 -i 12 -k MAC
r -t 0.628042316 -s 23 -d -1 -p message -e 32 -c 2 -a 0 -i 12 -k MAC
r -t 0.628042617 -s 1 -d -1 -p message -e 32 -c 2 -a 0 -i 12 -k MAC
r -t 0.628042761 -s 27 -d -1 -p message -e 32 -c 2 -a 0 -i 12 -k MAC
r -t 0.628042761 -s 26 -d -1 -p message -e 32 -c 2 -a 0 -i 12 -k MAC
r -t 0.628042871 -s 17 -d -1 -p message -e 32 -c 2 -a 0 -i 12 -k MAC
r -t 0.628066968 -s 14 -d -1 -p message -e 32 -c 2 -a 0 -i 12 -k RTR
r -t 0.628067243 -s 20 -d -1 -p message -e 32 -c 2 -a 0 -i 12 -k RTR
r -t 0.628067271 -s 2 -d -1 -p message -e 32 -c 2 -a 0 -i 12 -k RTR
r -t 0.628067316 -s 23 -d -1 -p message -e 32 -c 2 -a 0 -i 12 -k RTR
r -t 0.628067617 -s 1 -d -1 -p message -e 32 -c 2 -a 0 -i 12 -k RTR
r -t 0.628067761 -s 27 -d -1 -p message -e 32 -c 2 -a 0 -i 12 -k RTR
r -t 0.628067761 -s 26 -d -1 -p message -e 32 -c 2 -a 0 -i 12 -k RTR
r -t 0.628067871 -s 17 -d -1 -p message -e 32 -c 2 -a 0 -i 12 -k RTR
+ -t 0.634670006 -s 6 -d -1 -p message -e 32 -c 2 -a 0 -i 13 -k RTR 
- -t 0.634670006 -s 6 -d -1 -p message -e 32 -c 2 -a 0 -i 13 -k RTR
h -t 0.634670006 -s 6 -d -1 -p message -e 32 -c 2 -a 0 -i 13 -k RTR
+ -t 0.634865006 -s 6 -d -1 -p message -e 90 -c 2 -a 0 -i 13 -k MAC 
- -t 0.634865006 -s 6 -d -1 -p message -e 90 -c 2 -a 0 -i 13 -k MAC
h -t 0.634865006 -s 6 -d -1 -p message -e 90 -c 2 -a 0 -i 13 -k MAC
r -t 0.635585629 -s 19 -d -1 -p message -e 32 -c 2 -a 0 -i 13 -k MAC
r -t 0.635585920 -s 16 -d -1 -p message -e 32 -c 2 -a 0 -i 13 -k MAC
r -t 0.635585983 -s 17 -d -1 -p message -e 32 -c 2 -a 0 -i 13 -k MAC
r -t 0.635586120 -s 21 -d -1 -p message -e 32 -c 2 -a 0 -i 13 -k MAC
r -t 0.635586189 -s 5 -d -1 -p message -e 32 -c 2 -a 0 -i 13 -k MAC
r -t 0.635586272 -s 12 -d -1 -p message -e 32 -c 2 -a 0 -i 13 -k MAC
r -t 0.635610629 -s 19 -d -1 -p message -e 32 -c 2 -a 0 -i 13 -k RTR
r -t 0.635610920 -s 16 -d -1 -p message -e 32 -c 2 -a 0 -i 13 -k RTR
r -t 0.635610983 -s 17 -d -1 -p message -e 32 -c 2 -a 0 -i 13 -k RTR
r -t 0.635611120 -s 21 -d -1 -p message -e 32 -c 2 -a 0 -i 13 -k RTR
r -t 0.635611189 -s 5 -d -1 -p message -e 32 -c 2 -a 0 -i 13 -k RTR
r -t 0.635611272 -s 12 -d -1 -p message -e 32 -c 2 -a 0 -i 13 -k RTR
+ -t 0.705637875 -s 21 -d -1 -p message -e 32 -c 2 -a 0 -i 14 -k RTR 
- -t 0.705637875 -s 21 -d -1 -p message -e 32 -c 2 -a 0 -i 14 -k RTR
h -t 0.705637875 -s 21 -d -1 -p message -e 32 -c 2 -a 0 -i 14 -k RTR
+ -t 0.706012875 -s 21 -d -1 -p message -e 90 -c 2 -a 0 -i 14 -k MAC 
- -t 0.706012875 -s 21 -d -1 -p message -e 90 -c 2 -a 0 -i 14 -k MAC
h -t 0.706012875 -s 21 -d -1 -p message -e 90 -c 2 -a 0 -i 14 -k MAC
r -t 0.706733677 -s 23 -d -1 -p message -e 32 -c 2 -a 0 -i 14 -k MAC
r -t 0.706733729 -s 2 -d -1 -p message -e 32 -c 2 -a 0 -i 14 -k MAC
r -t 0.706733845 -s 24 -d -1 -p message -e 32 -c 2 -a 0 -i 14 -k MAC
r -t 0.706733857 -s 19 -d -1 -p message -e 32 -c 2 -a 0 -i 14 -k MAC
r -t 0.706733988 -s 6 -d -1 -p message -e 32 -c 2 -a 0 -i 14 -k MAC
r -t 0.706734034 -s 17 -d -1 -p message -e 32 -c 2 -a 0 -i 14 -k MAC
r -t 0.706734135 -s 1 -d -1 -p message -e 32 -c 2 -a 0 -i 14 -k MAC
r -t 0.706758677 -s 23 -d -1 -p message -e 32 -c 2 -a 0 -i 14 -k RTR
r -t 0.706758729 -s 2 -d -1 -p message -e 32 -c 2 -a 0 -i 14 -k RTR
r -t 0.706758845 -s 24 -d -1 -p message -e 32 -c 2 -a 0 -i 14 -k RTR
r -t 0.706758857 -s 19 -d -1 -p message -e 32 -c 2 -a 0 -i 14 -k RTR
r -t 0.706758988 -s 6 -d -1 -p message -e 32 -c 2 -a 0 -i 14 -k RTR
r -t 0.706759034 -s 17 -d -1 -p message -e 32 -c 2 -a 0 -i 14 -k RTR
r -t 0.706759135 -s 1 -d -1 -p message -e 32 -c 2 -a 0 -i 14 -k RTR
+ -t 0.821435127 -s 23 -d -1 -p message -e 32 -c 2 -a 0 -i 15 -k RTR 
- -t 0.821435127 -s 23 -d -1 -p message -e 32 -c 2 -a 0 -i 15 -k RTR
h -t 0.821435127 -s 23 -d -1 -p message -e 32 -c 2 -a 0 -i 15 -k RTR
+ -t 0.821550127 -s 23 -d -1 -p message -e 90 -c 2 -a 0 -i 15 -k MAC 
- -t 0.821550127 -s 23 -d -1 -p message -e 90 -c 2 -a 0 -i 15 -k MAC
h -t 0.821550127 -s 23 -d -1 -p message -e 90 -c 2 -a 0 -i 15 -k MAC
r -t 0.822270188 -s 2 -d -1 -p message -e 32 -c 2 -a 0 -i 15 -k MAC
r -t 0.822270851 -s 10 -d -1 -p message -e 32 -c 2 -a 0 -i 15 -k MAC
r -t 0.822270923 -s 1 -d -1 -p message -e 32 -c 2 -a 0 -i 15 -k MAC
r -t 0.822270929 -s 21 -d -1 -p message -e 32 -c 2 -a 0 -i 15 -k MAC
r -t 0.822271124 -s 14 -d -1 -p message -e 32 -c 2 -a 0 -i 15 -k MAC
r -t 0.822271145 -s 17 -d -1 -p message -e 32 -c 2 -a 0 -i 15 -k MAC
r -t 0.822271238 -s 19 -d -1 -p message -e 32 -c 2 -a 0 -i 15 -k MAC
r -t 0.822271453 -s 24 -d -1 -p message -e 32 -c 2 -a 0 -i 15 -k MAC
r -t 0.822295188 -s 2 -d -1 -p message -e 32 -c 2 -a 0 -i 15 -k RTR
r -t 0.822295851 -s 10 -d -1 -p message -e 32 -c 2 -a 0 -i 15 -k RTR
r -t 0.822295923 -s 1 -d -1 -p message -e 32 -c 2 -a 0 -i 15 -k RTR
r -t 0.822295929 -s 21 -d -1 -p message -e 32 -c 2 -a 0 -i 15 -k RTR
r -t 0.822296124 -s 14 -d -1 -p message -e 32 -c 2 -a 0 -i 15 -k RTR
r -t 0.822296145 -s 17 -d -1 -p message -e 32 -c 2 -a 0 -i 15 -k RTR
r -t 0.822296238 -s 19 -d -1 -p message -e 32 -c 2 -a 0 -i 15 -k RTR
r -t 0.822296453 -s 24 -d -1 -p message -e 32 -c 2 -a 0 -i 15 -k RTR
+ -t 0.848147771 -s 17 -d -1 -p message -e 32 -c 2 -a 0 -i 16 -k RTR 
- -t 0.848147771 -s 17 -d -1 -p message -e 32 -c 2 -a 0 -i 16 -k RTR
h -t 0.848147771 -s 17 -d -1 -p message -e 32 -c 2 -a 0 -i 16 -k RTR
+ -t 0.848382771 -s 17 -d -1 -p message -e 90 -c 2 -a 0 -i 16 -k MAC 
- -t 0.848382771 -s 17 -d -1 -p message -e 90 -c 2 -a 0 -i 16 -k MAC
h -t 0.848382771 -s 17 -d -1 -p message -e 90 -c 2 -a 0 -i 16 -k MAC
r -t 0.849103134 -s 19 -d -1 -p message -e 32 -c 2 -a 0 -i 16 -k MAC
r -t 0.849103334 -s 16 -d -1 -p message -e 32 -c 2 -a 0 -i 16 -k MAC
r -t 0.849103748 -s 6 -d -1 -p message -e 32 -c 2 -a 0 -i 16 -k MAC
r -t 0.849103789 -s 23 -d -1 -p message -e 32 -c 2 -a 0 -i 16 -k MAC
r -t 0.849103831 -s 2 -d -1 -p message -e 32 -c 2 -a 0 -i 16 -k MAC
r -t 0.849103931 -s 21 -d -1 -p message -e 32 -c 2 -a 0 -i 16 -k MAC
r -t 0.849104003 -s 14 -d -1 -p message -e 32 -c 2 -a 0 -i 16 -k MAC
r -t 0.849104050 -s 10 -d -1 -p message -e 32 -c 2 -a 0 -i 16 -k MAC
r -t 0.849128134 -s 19 -d -1 -p message -e 32 -c 2 -a 0 -i 16 -k RTR
r -t 0.849128334 -s 16 -d -1 -p message -e 32 -c 2 -a 0 -i 16 -k RTR
r -t 0.849128748 -s 6 -d -1 -p message -e 32 -c 2 -a 0 -i 16 -k RTR
r -t 0.849128789 -s 23 -d -1 -p message -e 32 -c 2 -a 0 -i 16 -k RTR
r -t 0.849128831 -s 2 -d -1 -p message -e 32 -c 2 -a 0 -i 16 -k RTR
r -t 0.849128931 -s 21 -d -1 -p message -e 32 -c 2 -a 0 -i 16 -k RTR
r -t 0.849129003 -s 14 -d -1 -p message -e 32 -c 2 -a 0 -i 16 -k RTR
r -t 0.849129050 -s 10 -d -1 -p message -e 32 -c 2 -a 0 -i 16 -k RTR
+ -t 0.882674688 -s 4 -d -1 -p message -e 32 -c 2 -a 0 -i 17 -k RTR 
- -t 0.882674688 -s 4 -d -1 -p message -e 32 -c 2 -a 0 -i 17 -k RTR
h -t 0.882674688 -s 4 -d -1 -p message -e 32 -c 2 -a 0 -i 17 -k RTR
+ -t 0.882909688 -s 4 -d -1 -p message -e 90 -c 2 -a 0 -i 17 -k MAC 
- -t 0.882909688 -s 4 -d -1 -p message -e 90 -c 2 -a 0 -i 17 -k MAC
h -t 0.882909688 -s 4 -d -1 -p message -e 90 -c 2 -a 0 -i 17 -k MAC
r -t 0.883630019 -s 29 -d -1 -p message -e 32 -c 2 -a 0 -i 17 -k MAC
r -t 0.883630901 -s 16 -d -1 -p message -e 32 -c 2 -a 0 -i 17 -k MAC
r -t 0.883655019 -s 29 -d -1 -p message -e 32 -c 2 -a 0 -i 17 -k RTR
r -t 0.883655901 -s 16 -d -1 -p message -e 32 -c 2 -a 0 -i 17 -k RTR
+ -t 0.935449221 -s 25 -d -1 -p message -e 32 -c 2 -a 0 -i 18 -k RTR 
- -t 0.935449221 -s 25 -d -1 -p message -e 32 -c 2 -a 0 -i 18 -k RTR
h -t 0.935449221 -s 25 -d -1 -p message -e 32 -c 2 -a 0 -i 18 -k RTR
+ -t 0.935884221 -s 25 -d -1 -p message -e 90 -c 2 -a 0 -i 18 -k MAC 
- -t 0.935884221 -s 25 -d -1 -p message -e 90 -c 2 -a 0 -i 18 -k MAC
h -t 0.935884221 -s 25 -d -1 -p message -e 90 -c 2 -a 0 -i 18 -k MAC
r -t 0.936604422 -s 11 -d -1 -p message -e 32 -c 2 -a 0 -i 18 -k MAC
r -t 0.936604688 -s 3 -d -1 -p message -e 32 -c 2 -a 0 -i 18 -k MAC
r -t 0.936605137 -s 8 -d -1 -p message -e 32 -c 2 -a 0 -i 18 -k MAC
r -t 0.936605196 -s 18 -d -1 -p message -e 32 -c 2 -a 0 -i 18 -k MAC
r -t 0.936629422 -s 11 -d -1 -p message -e 32 -c 2 -a 0 -i 18 -k RTR
r -t 0.936629688 -s 3 -d -1 -p message -e 32 -c 2 -a 0 -i 18 -k RTR
r -t 0.936630137 -s 8 -d -1 -p message -e 32 -c 2 -a 0 -i 18 -k RTR
r -t 0.936630196 -s 18 -d -1 -p message -e 32 -c 2 -a 0 -i 18 -k RTR
+ -t 1.039009780 -s 24 -d -1 -p message -e 32 -c 2 -a 0 -i 19 -k RTR 
- -t 1.039009780 -s 24 -d -1 -p message -e 32 -c 2 -a 0 -i 19 -k RTR
h -t 1.039009780 -s 24 -d -1 -p message -e 32 -c 2 -a 0 -i 19 -k RTR
+ -t 1.039404780 -s 24 -d -1 -p message -e 90 -c 2 -a 0 -i 19 -k MAC 
- -t 1.039404780 -s 24 -d -1 -p message -e 90 -c 2 -a 0 -i 19 -k MAC
h -t 1.039404780 -s 24 -d -1 -p message -e 90 -c 2 -a 0 -i 19 -k MAC
r -t 1.040125507 -s 22 -d -1 -p message -e 32 -c 2 -a 0 -i 19 -k MAC
r -t 1.040125556 -s 28 -d -1 -p message -e 32 -c 2 -a 0 -i 19 -k MAC
r -t 1.040125750 -s 21 -d -1 -p message -e 32 -c 2 -a 0 -i 19 -k MAC
r -t 1.040125900 -s 1 -d -1 -p message -e 32 -c 2 -a 0 -i 19 -k MAC
r -t 1.040126009 -s 7 -d -1 -p message -e 32 -c 2 -a 0 -i 19 -k MAC
r -t 1.040126105 -s 23 -d -1 -p message -e 32 -c 2 -a 0 -i 19 -k MAC
r -t 1.040150507 -s 22 -d -1 -p message -e 32 -c 2 -a 0 -i 19 -k RTR
r -t 1.040150556 -s 28 -d -1 -p message -e 32 -c 2 -a 0 -i 19 -k RTR
r -t 1.040150750 -s 21 -d -1 -p message -e 32 -c 2 -a 0 -i 19 -k RTR
r -t 1.040150900 -s 1 -d -1 -p message -e 32 -c 2 -a 0 -i 19 -k RTR
r -t 1.040151009 -s 7 -d -1 -p message -e 32 -c 2 -a 0 -i 19 -k RTR
r -t 1.040151105 -s 23 -d -1 -p message -e 32 -c 2 -a 0 -i 19 -k RTR
+ -t 1.119657716 -s 1 -d -1 -p message -e 32 -c 2 -a 0 -i 20 -k RTR 
- -t 1.119657716 -s 1 -d -1 -p message -e 32 -c 2 -a 0 -i 20 -k RTR
h -t 1.119657716 -s 1 -d -1 -p message -e 32 -c 2 -a 0 -i 20 -k RTR
+ -t 1.119832716 -s 1 -d -1 -p message -e 90 -c 2 -a 0 -i 20 -k MAC 
- -t 1.119832716 -s 1 -d -1 -p message -e 90 -c 2 -a 0 -i 20 -k MAC
h -t 1.119832716 -s 1 -d -1 -p message -e 90 -c 2 -a 0 -i 20 -k MAC
r -t 1.120553469 -s 2 -d -1 -p message -e 32 -c 2 -a 0 -i 20 -k MAC
r -t 1.120553511 -s 23 -d -1 -p message -e 32 -c 2 -a 0 -i 20 -k MAC
r -t 1.120553740 -s 10 -d -1 -p message -e 32 -c 2 -a 0 -i 20 -k MAC
r -t 1.120553836 -s 24 -d -1 -p message -e 32 -c 2 -a 0 -i 20 -k MAC
r -t 1.120553976 -s 21 -d -1 -p message -e 32 -c 2 -a 0 -i 20 -k MAC
r -t 1.120578469 -s 2 -d -1 -p message -e 32 -c 2 -a 0 -i 20 -k RTR
r -t 1.120578511 -s 23 -d -1 -p message -e 32 -c 2 -a 0 -i 20 -k RTR
r -t 1.120578740 -s 10 -d -1 -p message -e 32 -c 2 -a 0 -i 20 -k RTR
r -t 1.120578836 -s 24 -d -1 -p message -e 32 -c 2 -a 0 -i 20 -k RTR
r -t 1.120578976 -s 21 -d -1 -p message -e 32 -c 2 -a 0 -i 20 -k RTR
+ -t 1.277890258 -s 9 -d -1 -p message -e 32 -c 2 -a 0 -i 21 -k RTR 
- -t 1.277890258 -s 9 -d -1 -p message -e 32 -c 2 -a 0 -i 21 -k RTR
h -t 1.277890258 -s 9 -d -1 -p message -e 32 -c 2 -a 0 -i 21 -k RTR
+ -t 1.278565258 -s 9 -d -1 -p message -e 90 -c 2 -a 0 -i 21 -k MAC 
- -t 1.278565258 -s 9 -d -1 -p message -e 90 -c 2 -a 0 -i 21 -k MAC
h -t 1.278565258 -s 9 -d -1 -p message -e 90 -c 2 -a 0 -i 21 -k MAC
r -t 1.279285633 -s 13 -d -1 -p message -e 32 -c 2 -a 0 -i 21 -k MAC
r -t 1.279285960 -s 7 -d -1 -p message -e 32 -c 2 -a 0 -i 21 -k MAC
r -t 1.279310633 -s 13 -d -1 -p message -e 32 -c 2 -a 0 -i 21 -k RTR
r -t 1.279310960 -s 7 -d -1 -p message -e 32 -c 2 -a 0 -i 21 -k RTR
+ -t 1.281327089 -s 14 -d -1 -p message -e 32 -c 2 -a 0 -i 22 -k RTR 
- -t 1.281327089 -s 14 -d -1 -p message -e 32 -c 2 -a 0 -i 22 -k RTR
h -t 1.281327089 -s 14 -d -1 -p message -e 32 -c 2 -a 0 -i 22 -k RTR
+ -t 1.281462089 -s 14 -d -1 -p message -e 90 -c 2 -a 0 -i 22 -k MAC 
- -t 1.281462089 -s 14 -d -1 -p message -e 90 -c 2 -a 0 -i 22 -k MAC
h -t 1.281462089 -s 14 -d -1 -p message -e 90 -c 2 -a 0 -i 22 -k MAC
r -t 1.282182466 -s 10 -d -1 -p message -e 32 -c 2 -a 0 -i 22 -k MAC
r -t 1.282182486 -s 20 -d -1 -p message -e 32 -c 2 -a 0 -i 22 -k MAC
r -t 1.282183055 -s 2 -d -1 -p message -e 32 -c 2 -a 0 -i 22 -k MAC
r -t 1.282183086 -s 23 -d -1 -p message -e 32 -c 2 -a 0 -i 22 -k MAC
r -t 1.282183282 -s 27 -d -1 -p message -e 32 -c 2 -a 0 -i 22 -k MAC
r -t 1.282183282 -s 26 -d -1 -p message -e 32 -c 2 -a 0 -i 22 -k MAC
r -t 1.282183321 -s 17 -d -1 -p message -e 32 -c 2 -a 0 -i 22 -k MAC
r -t 1.282207466 -s 10 -d -1 -p message -e 32 -c 2 -a 0 -i 22 -k RTR
r -t 1.282207486 -s 20 -d -1 -p message -e 32 -c 2 -a 0 -i 22 -k RTR
r -t 1.282208055 -s 2 -d -1 -p message -e 32 -c 2 -a 0 -i 22 -k RTR
r -t 1.282208086 -s 23 -d -1 -p message -e 32 -c 2 -a 0 -i 22 -k RTR
r -t 1.282208282 -s 27 -d -1 -p message -e 32 -c 2 -a 0 -i 22 -k RTR
r -t 1.282208282 -s 26 -d -1 -p message -e 32 -c 2 -a 0 -i 22 -k RTR
r -t 1.282208321 -s 17 -d -1 -p message -e 32 -c 2 -a 0 -i 22 -k RTR