n -t * -s 0  -x 585.88 -y 706.95000000000005 -Z 0 -z 100  -v circle -c black
n -t * -s 1  -x 182.21000000000001 -y 1370.4400000000001 -Z 0 -z 100  -v circle -c black
n -t * -s 2  -x 1316.0999999999999 -y 740.34000000000003 -Z 0 -z 100  -v circle -c black
n -t * -s 3  -x 79.430000000000007 -y 804.47000000000003 -Z 0 -z 100  -v circle -c black
n -t * -s 4  -x 1224.73 -y 468.81999999999999 -Z 0 -z 100  -v circle -c black
n -t * -s 5  -x 93.939999999999998 -y 844.77999999999997 -Z 0 -z 100  -v circle -c black
n -t * -s 6  -x 1132.5999999999999 -y 1100.3399999999999 -Z 0 -z 100  -v circle -c black
n -t * -s 7  -x 79.900000000000006 -y 1289.3099999999999 -Z 0 -z 100  -v circle -c black
n -t * -s 8  -x 623.49000000000001 -y 272.08999999999997 -Z 0 -z 100  -v circle -c black
n -t * -s 9  -x 259.99000000000001 -y 717.30999999999995 -Z 0 -z 100  -v circle -c black
n -t * -s 10  -x 358.02999999999997 -y 558.63999999999999 -Z 0 -z 100  -v circle -c black
n -t * -s 11  -x 1225.8800000000001 -y 977.01999999999998 -Z 0 -z 100  -v circle -c black
n -t * -s 12  -x 308.95999999999998 -y 617.69000000000005 -Z 0 -z 100  -v circle -c black
n -t * -s 13  -x 877.88 -y 129.55000000000001 -Z 0 -z 100  -v circle -c black
n -t * -s 14  -x 227.22999999999999 -y 1367.22 -Z 0 -z 100  -v circle -c black
n -t * -s 15  -x 1059.26 -y 213.36000000000001 -Z 0 -z 100  -v circle -c black
n -t * -s 16  -x 1003.65 -y 543.76999999999998 -Z 0 -z 100  -v circle -c black
n -t * -s 17  -x 719.72000000000003 -y 680.71000000000004 -Z 0 -z 100  -v circle -c black
n -t * -s 18  -x 866.27999999999997 -y 163.03 -Z 0 -z 100  -v circle -c black
n -t * -s 19  -x 1241.55 -y 1060.22 -Z 0 -z 100  -v circle -c black
n -t * -s 20  -x 1079.53 -y 298.99000000000001 -Z 0 -z 100  -v circle -c black
n -t * -s 21  -x 509.10000000000002 -y 868.08000000000004 -Z 0 -z 100  -v circle -c black
n -t * -s 22  -x 720.09000000000003 -y 406.02999999999997 -Z 0 -z 100  -v circle -c black
n -t * -s 23  -x 598.41999999999996 -y 373.95999999999998 -Z 0 -z 100  -v circle -c black
n -t * -s 24  -x 1262.9200000000001 -y 471.24000000000001 -Z 0 -z 100  -v circle -c black
n -t * -s 25  -x 0 -y 0 -Z 0 -z 100  -v circle -c black
n -t * -s 26  -x 0 -y 0 -Z 0 -z 100  -v circle -c black
n -t * -s 27  -x 0 -y 0 -Z 0 -z 100  -v circle -c black
n -t * -s 28  -x 0 -y 1000 -Z 0 -z 100  -v circle -c black
n -t * -s 29  -x 1000 -y 0 -Z 0 -z 100  -v circle -c black
V -t * -v 1.0a5 -a 0
W -t * -x 1700 -y 1700
A -t * -n 1 -p 0 -o 0x7fffffff -c 30 -a 1
A -t * -h 1 -m 1073741823 -s 0
n -t 0.000000 -s 0 -x 585.880000 -y 706.950000 -U 0.000000 -V 0.000000 -T 0.000000
n -t 0.000000 -s 1 -x 182.210000 -y 1370.440000 -U 0.000000 -V 0.000000 -T 0.000000
n -t 0.000000 -s 2 -x 1316.100000 -y 740.340000 -U 0.000000 -V 0.000000 -T 0.000000
n -t 0.000000 -s 3 -x 79.430000 -y 804.470000 -U 0.000000 -V 0.000000 -T 0.000000
n -t 0.000000 -s 4 -x 1224.730000 -y 468.820000 -U 0.000000 -V 0.000000 -T 0.000000
n -t 0.000000 -s 5 -x 93.940000 -y 844.780000 -U 0.000000 -V 0.000000 -T 0.000000
n -t 0.000000 -s 6 -x 1132.600000 -y 1100.340000 -U 0.000000 -V 0.000000 -T 0.000000
n -t 0.000000 -s 7 -x 79.900000 -y 1289.310000 -U 0.000000 -V 0.000000 -T 0.000000
n -t 0.000000 -s 8 -x 623.490000 -y 272.090000 -U 0.000000 -V 0.000000 -T 0.000000
n -t 0.000000 -s 9 -x 259.990000 -y 717.310000 -U 0.000000 -V 0.000000 -T 0.000000
n -t 0.000000 -s 10 -x 358.030000 -y 558.640000 -U 0.000000 -V 0.000000 -T 0.000000
n -t 0.000000 -s 11 -x 1225.880000 -y 977.020000 -U 0.000000 -V 0.000000 -T 0.000000
n -t 0.000000 -s 12 -x 308.960000 -y 617.690000 -U 0.000000 -V 0.000000 -T 0.000000
n -t 0.000000 -s 13 -x 877.880000 -y 129.550000 -U 0.000000 -V 0.000000 -T 0.000000
n -t 0.000000 -s 14 -x 227.230000 -y 1367.220000 -U 0.000000 -V 0.000000 -T 0.000000
n -t 0.000000 -s 15 -x 1059.260000 -y 213.360000 -U 0.000000 -V 0.000000 -T 0.000000
n -t 0.000000 -s 16 -x 1003.650000 -y 543.770000 -U 0.000000 -V 0.000000 -T 0.000000
n -t 0.000000 -s 17 -x 719.720000 -y 680.710000 -U 0.000000 -V 0.000000 -T 0.000000
n -t 0.000000 -s 18 -x 866.280000 -y 163.030000 -U 0.000000 -V 0.000000 -T 0.000000
n -t 0.000000 -s 19 -x 1241.550000 -y 1060.220000 -U 0.000000 -V 0.000000 -T 0.000000
n -t 0.000000 -s 20 -x 1079.530000 -y 298.990000 -U 0.000000 -V 0.000000 -T 0.000000
n -t 0.000000 -s 21 -x 509.100000 -y 868.080000 -U 0.000000 -V 0.000000 -T 0.000000
n -t 0.000000 -s 22 -x 720.090000 -y 406.030000 -U 0.000000 -V 0.000000 -T 0.000000
n -t 0.000000 -s 23 -x 598.420000 -y 373.960000 -U 0.000000 -V 0.000000 -T 0.000000
n -t 0.000000 -s 24 -x 1262.920000 -y 471.240000 -U 0.000000 -V 0.000000 -T 0.000000
n -t 0.000000 -s 0 -x 585.880000 -y 706.950000 -U 0.000000 -V 0.000000 -T 0.000000
n -t 0.000000 -s 1 -x 182.210000 -y 1370.440000 -U 0.000000 -V 0.000000 -T 0.000000
+ -t 0.003091411 -s 0 -d -1 -p message -e 32 -c 2 -a 0 -i 0 -k RTR 
- -t 0.003091411 -s 0 -d -1 -p message -e 32 -c 2 -a 0 -i 0 -k RTR
h -t 0.003091411 -s 0 -d -1 -p message -e 32 -c 2 -a 0 -i 0 -k RTR
+ -t 0.003466411 -s 0 -d -1 -p message -e 90 -c 2 -a 0 -i 0 -k MAC 
- -t 0.003466411 -s 0 -d -1 -p message -e 90 -c 2 -a 0 -i 0 -k MAC
h -t 0.003466411 -s 0 -d -1 -p message -e 90 -c 2 -a 0 -i 0 -k MAC
r -t 0.004186865 -s 17 -d -1 -p message -e 32 -c 2 -a 0 -i 0 -k MAC
r -t 0.004187006 -s 21 -d -1 -p message -e 32 -c 2 -a 0 -i 0 -k MAC
r -t 0.004187317 -s 10 -d -1 -p message -e 32 -c 2 -a 0 -i 0 -k MAC
r -t 0.004187381 -s 12 -d -1 -p message -e 32 -c 2 -a 0 -i 0 -k MAC
r -t 0.004187498 -s 9 -d -1 -p message -e 32 -c 2 -a 0 -i 0 -k MAC
r -t 0.004187509 -s 22 -d -1 -p message -e 32 -c 2 -a 0 -i 0 -k MAC
r -t 0.004187521 -s 23 -d -1 -p message -e 32 -c 2 -a 0 -i 0 -k MAC
r -t 0.004211865 -s 17 -d -1 -p message -e 32 -c 2 -a 0 -i 0 -k RTR
r -t 0.004212006 -s 21 -d -1 -p message -e 32 -c 2 -a 0 -i 0 -k RTR
r -t 0.004212317 -s 10 -d -1 -p message -e 32 -c 2 -a 0 -i 0 -k RTR
r -t 0.004212381 -s 12 -d -1 -p message -e 32 -c 2 -a 0 -i 0 -k RTR
r -t 0.004212498 -s 9 -d -1 -p message -e 32 -c 2 -a 0 -i 0 -k RTR
r -t 0.004212509 -s 22 -d -1 -p message -e 32 -c 2 -a 0 -i 0 -k RTR
r -t 0.004212521 -s 23 -d -1 -p message -e 32 -c 2 -a 0 -i 0 -k RTR
+ -t 0.037458776 -s 2 -d -1 -p message -e 32 -c 2 -a 0 -i 1 -k RTR 
- -t 0.037458776 -s 2 -d -1 -p message -e 32 -c 2 -a 0 -i 1 -k RTR
h -t 0.037458776 -s 2 -d -1 -p message -e 32 -c 2 -a 0 -i 1 -k RTR
+ -t 0.037813776 -s 2 -d -1 -p message -e 90 -c 2 -a 0 -i 1 -k MAC 
- -t 0.037813776 -s 2 -d -1 -p message -e 90 -c 2 -a 0 -i 1 -k MAC
h -t 0.037813776 -s 2 -d -1 -p message -e 90 -c 2 -a 0 -i 1 -k MAC
r -t 0.038534620 -s 11 -d -1 -p message -e 32 -c 2 -a 0 -i 1 -k MAC
r -t 0.038534690 -s 24 -d -1 -p message -e 32 -c 2 -a 0 -i 1 -k MAC
r -t 0.038534731 -s 4 -d -1 -p message -e 32 -c 2 -a 0 -i 1 -k MAC
r -t 0.038534871 -s 19 -d -1 -p message -e 32 -c 2 -a 0 -i 1 -k MAC
r -t 0.038535006 -s 16 -d -1 -p message -e 32 -c 2 -a 0 -i 1 -k MAC
r -t 0.038559620 -s 11 -d -1 -p message -e 32 -c 2 -a 0 -i 1 -k RTR
r -t 0.038559690 -s 24 -d -1 -p message -e 32 -c 2 -a 0 -i 1 -k RTR
r -t 0.038559731 -s 4 -d -1 -p message -e 32 -c 2 -a 0 -i 1 -k RTR
r -t 0.038559871 -s 19 -d -1 -p message -e 32 -c 2 -a 0 -i 1 -k RTR
r -t 0.038560006 -s 16 -d -1 -p message -e 32 -c 2 -a 0 -i 1 -k RTR
+ -t 0.087462768 -s 13 -d -1 -p message -e 32 -c 2 -a 0 -i 2 -k RTR 
- -t 0.087462768 -s 13 -d -1 -p message -e 32 -c 2 -a 0 -i 2 -k RTR
h -t 0.087462768 -s 13 -d -1 -p message -e 32 -c 2 -a 0 -i 2 -k RTR
+ -t 0.087757768 -s 13 -d -1 -p message -e 90 -c 2 -a 0 -i 2 -k MAC 
- -t 0.087757768 -s 13 -d -1 -p message -e 90 -c 2 -a 0 -i 2 -k MAC
h -t 0.087757768 -s 13 -d -1 -p message -e 90 -c 2 -a 0 -i 2 -k MAC
r -t 0.088477886 -s 18 -d -1 -p message -e 32 -c 2 -a 0 -i 2 -k MAC
r -t 0.088478361 -s 29 -d -1 -p message -e 32 -c 2 -a 0 -i 2 -k MAC
r -t 0.088478434 -s 15 -d -1 -p message -e 32 -c 2 -a 0 -i 2 -k MAC
r -t 0.088478646 -s 20 -d -1 -p message -e 32 -c 2 -a 0 -i 2 -k MAC
r -t 0.088478740 -s 8 -d -1 -p message -e 32 -c 2 -a 0 -i 2 -k MAC
r -t 0.088478829 -s 22 -d -1 -p message -e 32 -c 2 -a 0 -i 2 -k MAC
r -t 0.088479005 -s 23 -d -1 -p message -e 32 -c 2 -a 0 -i 2 -k MAC
r -t 0.088502886 -s 18 -d -1 -p message -e 32 -c 2 -a 0 -i 2 -k RTR
r -t 0.088503361 -s 29 -d -1 -p message -e 32 -c 2 -a 0 -i 2 -k RTR
r -t 0.088503434 -s 15 -d -1 -p message -e 32 -c 2 -a 0 -i 2 -k RTR
r -t 0.088503646 -s 20 -d -1 -p message -e 32 -c 2 -a 0 -i 2 -k RTR
r -t 0.088503740 -s 8 -d -1 -p message -e 32 -c 2 -a 0 -i 2 -k RTR
r -t 0.088503829 -s 22 -d -1 -p message -e 32 -c 2 -a 0 -i 2 -k RTR
r -t 0.088504005 -s 23 -d -1 -p message -e 32 -c 2 -a 0 -i 2 -k RTR
+ -t 0.177365656 -s 3 -d -1 -p message -e 32 -c 2 -a 0 -i 3 -k RTR 
- -t 0.177365656 -s 3 -d -1 -p message -e 32 -c 2 -a 0 -i 3 -k RTR
h -t 0.177365656 -s 3 -d -1 -p message -e 32 -c 2 -a 0 -i 3 -k RTR
+ -t 0.177560656 -s 3 -d -1 -p message -e 90 -c 2 -a 0 -i 3 -k MAC 
- -t 0.177560656 -s 3 -d -1 -p message -e 90 -c 2 -a 0 -i 3 -k MAC
h -t 0.177560656 -s 3 -d -1 -p message -e 90 -c 2 -a 0 -i 3 -k MAC
r -t 0.178280799 -s 5 -d -1 -p message -e 32 -c 2 -a 0 -i 3 -k MAC
r -t 0.178281324 -s 9 -d -1 -p message -e 32 -c 2 -a 0 -i 3 -k MAC
r -t 0.178281359 -s 28 -d -1 -p message -e 32 -c 2 -a 0 -i 3 -k MAC
r -t 0.178281642 -s 12 -d -1 -p message -e 32 -c 2 -a 0 -i 3 -k MAC
r -t 0.178281894 -s 10 -d -1 -p message -e 32 -c 2 -a 0 -i 3 -k MAC
r -t 0.178305799 -s 5 -d -1 -p message -e 32 -c 2 -a 0 -i 3 -k RTR
r -t 0.178306324 -s 9 -d -1 -p message -e 32 -c 2 -a 0 -i 3 -k RTR
r -t 0.178306359 -s 28 -d -1 -p message -e 32 -c 2 -a 0 -i 3 -k RTR
r -t 0.178306642 -s 12 -d -1 -p message -e 32 -c 2 -a 0 -i 3 -k RTR
r -t 0.178306894 -s 10 -d -1 -p message -e 32 -c 2 -a 0 -i 3 -k RTR
+ -t 0.191634337 -s 19 -d -1 -p message -e 32 -c 2 -a 0 -i 4 -k RTR 
- -t 0.191634337 -s 19 -d -1 -p message -e 32 -c 2 -a 0 -i 4 -k RTR
h -t 0.191634337 -s 19 -d -1 -p message -e 32 -c 2 -a 0 -i 4 -k RTR
+ -t 0.191889337 -s 19 -d -1 -p message -e 90 -c 2 -a 0 -i 4 -k MAC 
- -t 0.191889337 -s 19 -d -1 -p message -e 90 -c 2 -a 0 -i 4 -k MAC
h -t 0.191889337 -s 19 -d -1 -p message -e 90 -c 2 -a 0 -i 4 -k MAC
r -t 0.192609619 -s 11 -d -1 -p message -e 32 -c 2 -a 0 -i 4 -k MAC
r -t 0.192609724 -s 6 -d -1 -p message -e 32 -c 2 -a 0 -i 4 -k MAC
r -t 0.192610432 -s 2 -d -1 -p message -e 32 -c 2 -a 0 -i 4 -k MAC
r -t 0.192634619 -s 11 -d -1 -p message -e 32 -c 2 -a 0 -i 4 -k RTR
r -t 0.192634724 -s 6 -d -1 -p message -e 32 -c 2 -a 0 -i 4 -k RTR
r -t 0.192635432 -s 2 -d -1 -p message -e 32 -c 2 -a 0 -i 4 -k RTR
+ -t 0.234603229 -s 15 -d -1 -p message -e 32 -c 2 -a 0 -i 5 -k RTR 
- -t 0.234603229 -s 15 -d -1 -p message -e 32 -c 2 -a 0 -i 5 -k RTR
h -t 0.234603229 -s 15 -d -1 -p message -e 32 -c 2 -a 0 -i 5 -k RTR
+ -t 0.234898229 -s 15 -d -1 -p message -e 90 -c 2 -a 0 -i 5 -k MAC 
- -t 0.234898229 -s 15 -d -1 -p message -e 90 -c 2 -a 0 -i 5 -k MAC
h -t 0.234898229 -s 15 -d -1 -p message -e 90 -c 2 -a 0 -i 5 -k MAC
r -t 0.235618523 -s 20 -d -1 -p message -e 32 -c 2 -a 0 -i 5 -k MAC
r -t 0.235618894 -s 18 -d -1 -p message -e 32 -c 2 -a 0 -i 5 -k MAC
r -t 0.235618895 -s 13 -d -1 -p message -e 32 -c 2 -a 0 -i 5 -k MAC
r -t 0.235618968 -s 29 -d -1 -p message -e 32 -c 2 -a 0 -i 5 -k MAC
r -t 0.235619244 -s 4 -d -1 -p message -e 32 -c 2 -a 0 -i 5 -k MAC
r -t 0.235619325 -s 24 -d -1 -p message -e 32 -c 2 -a 0 -i 5 -k MAC
r -t 0.235619346 -s 16 -d -1 -p message -e 32 -c 2 -a 0 -i 5 -k MAC
r -t 0.235619530 -s 22 -d -1 -p message -e 32 -c 2 -a 0 -i 5 -k MAC
r -t 0.235643523 -s 20 -d -1 -p message -e 32 -c 2 -a 0 -i 5 -k RTR
r -t 0.235643894 -s 18 -d -1 -p message -e 32 -c 2 -a 0 -i 5 -k RTR
r -t 0.235643895 -s 13 -d -1 -p message -e 32 -c 2 -a 0 -i 5 -k RTR
r -t 0.235643968 -s 29 -d -1 -p message -e 32 -c 2 -a 0 -i 5 -k RTR
r -t 0.235644244 -s 4 -d -1 -p message -e 32 -c 2 -a 0 -i 5 -k RTR
r -t 0.235644325 -s 24 -d -1 -p message -e 32 -c 2 -a 0 -i 5 -k RTR
r -t 0.235644346 -s 16 -d -1 -p message -e 32 -c 2 -a 0 -i 5 -k RTR
r -t 0.235644530 -s 22 -d -1 -p message -e 32 -c 2 -a 0 -i 5 -k RTR
+ -t 0.333839210 -s 12 -d -1 -p message -e 32 -c 2 -a 0 -i 6 -k RTR 
- -t 0.333839210 -s 12 -d -1 -p message -e 32 -c 2 -a 0 -i 6 -k RTR
h -t 0.333839210 -s 12 -d -1 -p message -e 32 -c 2 -a 0 -i 6 -k RTR
+ -t 0.333994210 -s 12 -d -1 -p message -e 90 -c 2 -a 0 -i 6 -k MAC 
- -t 0.333994210 -s 12 -d -1 -p message -e 90 -c 2 -a 0 -i 6 -k MAC
h -t 0.333994210 -s 12 -d -1 -p message -e 90 -c 2 -a 0 -i 6 -k MAC
r -t 0.334714466 -s 10 -d -1 -p message -e 32 -c 2 -a 0 -i 6 -k MAC
r -t 0.334714580 -s 9 -d -1 -p message -e 32 -c 2 -a 0 -i 6 -k MAC
r -t 0.334715180 -s 0 -d -1 -p message -e 32 -c 2 -a 0 -i 6 -k MAC
r -t 0.334715196 -s 3 -d -1 -p message -e 32 -c 2 -a 0 -i 6 -k MAC
r -t 0.334715252 -s 5 -d -1 -p message -e 32 -c 2 -a 0 -i 6 -k MAC
r -t 0.334715278 -s 21 -d -1 -p message -e 32 -c 2 -a 0 -i 6 -k MAC
r -t 0.334715471 -s 23 -d -1 -p message -e 32 -c 2 -a 0 -i 6 -k MAC
r -t 0.334739466 -s 10 -d -1 -p message -e 32 -c 2 -a 0 -i 6 -k RTR
r -t 0.334739580 -s 9 -d -1 -p message -e 32 -c 2 -a 0 -i 6 -k RTR
r -t 0.334740180 -s 0 -d -1 -p message -e 32 -c 2 -a 0 -i 6 -k RTR
r -t 0.334740196 -s 3 -d -1 -p message -e 32 -c 2 -a 0 -i 6 -k RTR
r -t 0.334740252 -s 5 -d -1 -p message -e 32 -c 2 -a 0 -i 6 -k RTR
r -t 0.334740278 -s 21 -d -1 -p message -e 32 -c 2 -a 0 -i 6 -k RTR
r -t 0.334740471 -s 23 -d -1 -p message -e 32 -c 2 -a 0 -i 6 -k RTR
+ -t 0.351472650 -s 18 -d -1 -p message -e 32 -c 2 -a 0 -i 7 -k RTR 
- -t 0.351472650 -s 18 -d -1 -p message -e 32 -c 2 -a 0 -i 7 -k RTR
h -t 0.351472650 -s 18 -d -1 -p message -e 32 -c 2 -a 0 -i 7 -k RTR
+ -t 0.351847650 -s 18 -d -1 -p message -e 90 -c 2 -a 0 -i 7 -k MAC 
- -t 0.351847650 -s 18 -d -1 -p message -e 90 -c 2 -a 0 -i 7 -k MAC
h -t 0.351847650 -s 18 -d -1 -p message -e 90 -c 2 -a 0 -i 7 -k MAC
r -t 0.352567768 -s 13 -d -1 -p message -e 32 -c 2 -a 0 -i 7 -k MAC
r -t 0.352568315 -s 15 -d -1 -p message -e 32 -c 2 -a 0 -i 7 -k MAC
r -t 0.352568353 -s 29 -d -1 -p message -e 32 -c 2 -a 0 -i 7 -k MAC
r -t 0.352568493 -s 20 -d -1 -p message -e 32 -c 2 -a 0 -i 7 -k MAC
r -t 0.352568537 -s 8 -d -1 -p message -e 32 -c 2 -a 0 -i 7 -k MAC
r -t 0.352568595 -s 22 -d -1 -p message -e 32 -c 2 -a 0 -i 7 -k MAC
r -t 0.352568787 -s 23 -d -1 -p message -e 32 -c 2 -a 0 -i 7 -k MAC
r -t 0.352592768 -s 13 -d -1 -p message -e 32 -c 2 -a 0 -i 7 -k RTR
r -t 0.352593315 -s 15 -d -1 -p message -e 32 -c 2 -a 0 -i 7 -k RTR
r -t 0.352593353 -s 29 -d -1 -p message -e 32 -c 2 -a 0 -i 7 -k RTR
r -t 0.352593493 -s 20 -d -1 -p message -e 32 -c 2 -a 0 -i 7 -k RTR
r -t 0.352593537 -s 8 -d -1 -p message -e 32 -c 2 -a 0 -i 7 -k RTR
r -t 0.352593595 -s 22 -d -1 -p message -e 32 -c 2 -a 0 -i 7 -k RTR
r -t 0.352593787 -s 23 -d -1 -p message -e 32 -c 2 -a 0 -i 7 -k RTR
+ -t 0.436386259 -s 29 -d -1 -p message -e 32 -c 2 -a 0 -i 8 -k RTR 
- -t 0.436386259 -s 29 -d -1 -p message -e 32 -c 2 -a 0 -i 8 -k RTR
h -t 0.436386259 -s 29 -d -1 -p message -e 32 -c 2 -a 0 -i 8 -k RTR
+ -t 0.436701259 -s 29 -d -1 -p message -e 90 -c 2 -a 0 -i 8 -k MAC 
- -t 0.436701259 -s 29 -d -1 -p message -e 90 -c 2 -a 0 -i 8 -k MAC
h -t 0.436701259 -s 29 -d -1 -p message -e 90 -c 2 -a 0 -i 8 -k MAC
r -t 0.437421853 -s 13 -d -1 -p message -e 32 -c 2 -a 0 -i 8 -k MAC
r -t 0.437421962 -s 18 -d -1 -p message -e 32 -c 2 -a 0 -i 8 -k MAC
r -t 0.437421997 -s 15 -d -1 -p message -e 32 -c 2 -a 0 -i 8 -k MAC
r -t 0.437422290 -s 20 -d -1 -p message -e 32 -c 2 -a 0 -i 8 -k MAC
r -t 0.437446853 -s 13 -d -1 -p message -e 32 -c 2 -a 0 -i 8 -k RTR
r -t 0.437446962 -s 18 -d -1 -p message -e 32 -c 2 -a 0 -i 8 -k RTR
r -t 0.437446997 -s 15 -d -1 -p message -e 32 -c 2 -a 0 -i 8 -k RTR
r -t 0.437447290 -s 20 -d -1 -p message -e 32 -c 2 -a 0 -i 8 -k RTR
+ -t 0.470117073 -s 8 -d -1 -p message -e 32 -c 2 -a 0 -i 9 -k RTR 
- -t 0.470117073 -s 8 -d -1 -p message -e 32 -c 2 -a 0 -i 9 -k RTR
h -t 0.470117073 -s 8 -d -1 -p message -e 32 -c 2 -a 0 -i 9 -k RTR
+ -t 0.470652073 -s 8 -d -1 -p message -e 90 -c 2 -a 0 -i 9 -k MAC 
- -t 0.470652073 -s 8 -d -1 -p message -e 90 -c 2 -a 0 -i 9 -k MAC
h -t 0.470652073 -s 8 -d -1 -p message -e 90 -c 2 -a 0 -i 9 -k MAC
r -t 0.471372423 -s 23 -d -1 -p message -e 32 -c 2 -a 0 -i 9 -k MAC
r -t 0.471372623 -s 22 -d -1 -p message -e 32 -c 2 -a 0 -i 9 -k MAC
r -t 0.471372960 -s 18 -d -1 -p message -e 32 -c 2 -a 0 -i 9 -k MAC
r -t 0.471373045 -s 13 -d -1 -p message -e 32 -c 2 -a 0 -i 9 -k MAC
r -t 0.471373375 -s 10 -d -1 -p message -e 32 -c 2 -a 0 -i 9 -k MAC
r -t 0.471397423 -s 23 -d -1 -p message -e 32 -c 2 -a 0 -i 9 -k RTR
r -t 0.471397623 -s 22 -d -1 -p message -e 32 -c 2 -a 0 -i 9 -k RTR
r -t 0.471397960 -s 18 -d -1 -p message -e 32 -c 2 -a 0 -i 9 -k RTR
r -t 0.471398045 -s 13 -d -1 -p message -e 32 -c 2 -a 0 -i 9 -k RTR
r -t 0.471398375 -s 10 -d -1 -p message -e 32 -c 2 -a 0 -i 9 -k RTR
+ -t 0.521504883 -s 22 -d -1 -p message -e 32 -c 2 -a 0 -i 10 -k RTR 
- -t 0.521504883 -s 22 -d -1 -p message -e 32 -c 2 -a 0 -i 10 -k RTR
h -t 0.521504883 -s 22 -d -1 -p message -e 32 -c 2 -a 0 -i 10 -k RTR
+ -t 0.521659883 -s 22 -d -1 -p message -e 90 -c 2 -a 0 -i 10 -k MAC 
- -t 0.521659883 -s 22 -d -1 -p message -e 90 -c 2 -a 0 -i 10 -k MAC
h -t 0.521659883 -s 22 -d -1 -p message -e 90 -c 2 -a 0 -i 10 -k MAC
r -t 0.522380303 -s 23 -d -1 -p message -e 32 -c 2 -a 0 -i 10 -k MAC
r -t 0.522380434 -s 8 -d -1 -p message -e 32 -c 2 -a 0 -i 10 -k MAC
r -t 0.522380799 -s 17 -d -1 -p message -e 32 -c 2 -a 0 -i 10 -k MAC
r -t 0.522380828 -s 18 -d -1 -p message -e 32 -c 2 -a 0 -i 10 -k MAC
r -t 0.522380934 -s 16 -d -1 -p message -e 32 -c 2 -a 0 -i 10 -k MAC
r -t 0.522380944 -s 13 -d -1 -p message -e 32 -c 2 -a 0 -i 10 -k MAC
r -t 0.522380981 -s 0 -d -1 -p message -e 32 -c 2 -a 0 -i 10 -k MAC
r -t 0.522381133 -s 20 -d -1 -p message -e 32 -c 2 -a 0 -i 10 -k MAC
r -t 0.522381183 -s 15 -d -1 -p message -e 32 -c 2 -a 0 -i 10 -k MAC
r -t 0.522381193 -s 10 -d -1 -p message -e 32 -c 2 -a 0 -i 10 -k MAC
r -t 0.522405303 -s 23 -d -1 -p message -e 32 -c 2 -a 0 -i 10 -k RTR
r -t 0.522405434 -s 8 -d -1 -p message -e 32 -c 2 -a 0 -i 10 -k RTR
r -t 0.522405799 -s 17 -d -1 -p message -e 32 -c 2 -a 0 -i 10 -k RTR
r -t 0.522405828 -s 18 -d -1 -p message -e 32 -c 2 -a 0 -i 10 -k RTR
r -t 0.522405934 -s 16 -d -1 -p message -e 32 -c 2 -a 0 -i 10 -k RTR
r -t 0.522405944 -s 13 -d -1 -p message -e 32 -c 2 -a 0 -i 10 -k RTR
r -t 0.522405981 -s 0 -d -1 -p message -e 32 -c 2 -a 0 -i 10 -k RTR
r -t 0.522406133 -s 20 -d -1 -p message -e 32 -c 2 -a 0 -i 10 -k RTR
r -t 0.522406183 -s 15 -d -1 -p message -e 32 -c 2 -a 0 -i 10 -k RTR
r -t 0.522406193 -s 10 -d -1 -p message -e 32 -c 2 -a 0 -i 10 -k RTR
+ -t 0.556838879 -s 28 -d -1 -p cbr -e 512 -c 2 -a 0 -i 11 -k AGT 
- -t 0.556838879 -s 28 -d -1 -p cbr -e 512 -c 2 -a 0 -i 11 -k AGT
h -t 0.556838879 -s 28 -d -1 -p cbr -e 512 -c 2 -a 0 -i 11 -k AGT
+ -t 0.627186592 -s 10 -d -1 -p message -e 32 -c 2 -a 0 -i 12 -k RTR 
- -t 0.627186592 -s 10 -d -1 -p message -e 32 -c 2 -a 0 -i 12 -k RTR
h -t 0.627186592 -s 10 -d -1 -p message -e 32 -c 2 -a 0 -i 12 -k RTR
+ -t 0.627321592 -s 10 -d -1 -p message -e 90 -c 2 -a 0 -i 12 -k MAC 
- -t 0.627321592 -s 10 -d -1 -p message -e 90 -c 2 -a 0 -i 12 -k MAC
h -t 0.627321592 -s 10 -d -1 -p message -e 90 -c 2 -a 0 -i 12 -k MAC
r -t 0.628041848 -s 12 -d -1 -p message -e 32 -c 2 -a 0 -i 12 -k MAC
r -t 0.628042214 -s 9 -d -1 -p message -e 32 -c 2 -a 0 -i 12 -k MAC
r -t 0.628042498 -s 0 -d -1 -p message -e 32 -c 2 -a 0 -i 12 -k MAC
r -t 0.628042603 -s 23 -d -1 -p message -e 32 -c 2 -a 0 -i 12 -k MAC
r -t 0.628042740 -s 21 -d -1 -p message -e 32 -c 2 -a 0 -i 12 -k MAC
r -t 0.628042831 -s 3 -d -1 -p message -e 32 -c 2 -a 0 -i 12 -k MAC
r -t 0.628042865 -s 17 -d -1 -p message -e 32 -c 2 -a 0 -i 12 -k MAC
r -t 0.628042890 -s 5 -d -1 -p message -e 32 -c 2 -a 0 -i 12 -k MAC
r -t 0.628042894 -s 8 -d -1 -p message -e 32 -c 2 -a 0 -i 12 -k MAC
r -t 0.628042902 -s 22 -d -1 -p message -e 32 -c 2 -a 0 -i 12 -k MAC
r -t 0.628066848 -s 12 -d -1 -p message -e 32 -c 2 -a 0 -i 12 -k RTR
r -t 0.628067214 -s 9 -d -1 -p message -e 32 -c 2 -a 0 -i 12 -k RTR
r -t 0.628067498 -s 0 -d -1 -p message -e 32 -c 2 -a 0 -i 12 -k RTR
r -t 0.628067603 -s 23 -d -1 -p message -e 32 -c 2 -a 0 -i 12 -k RTR
r -t 0.628067740 -s 21 -d -1 -p message -e 32 -c 2 -a 0 -i 12 -k RTR
r -t 0.628067831 -s 3 -d -1 -p message -e 32 -c 2 -a 0 -i 12 -k RTR
r -t 0.628067865 -s 17 -d -1 -p message -e 32 -c 2 -a 0 -i 12 -k RTR
r -t 0.628067890 -s 5 -d -1 -p message -e 32 -c 2 -a 0 -i 12 -k RTR
r -t 0.628067894 -s 8 -d -1 -p message -e 32 -c 2 -a 0 -i 12 -k RTR
r -t 0.628067902 -s 22 -d -1 -p message -e 32 -c 2 -a 0 -i 12 -k RTR
+ -t 0.634670006 -s 6 -d -1 -p message -e 32 -c 2 -a 0 -i 13 -k RTR 
- -t 0.634670006 -s 6 -d -1 -p message -e 32 -c 2 -a 0 -i 13 -k RTR
h -t 0.634670006 -s 6 -d -1 -p message -e 32 -c 2 -a 0 -i 13 -k RTR
+ -t 0.634865006 -s 6 -d -1 -p message -e 90 -c 2 -a 0 -i 13 -k MAC 
- -t 0.634865006 -s 6 -d -1 -p message -e 90 -c 2 -a 0 -i 13 -k MAC
h -t 0.634865006 -s 6 -d -1 -p message -e 90 -c 2 -a 0 -i 13 -k MAC
r -t 0.635585393 -s 19 -d -1 -p message -e 32 -c 2 -a 0 -i 13 -k MAC
r -t 0.635585522 -s 11 -d -1 -p message -e 32 -c 2 -a 0 -i 13 -k MAC
r -t 0.635610393 -s 19 -d -1 -p message -e 32 -c 2 -a 0 -i 13 -k RTR
r -t 0.635610522 -s 11 -d -1 -p message -e 32 -c 2 -a 0 -i 13 -k RTR
+ -t 0.705637875 -s 21 -d -1 -p message -e 32 -c 2 -a 0 -i 14 -k RTR 
- -t 0.705637875 -s 21 -d -1 -p message -e 32 -c 2 -a 0 -i 14 -k RTR
h -t 0.705637875 -s 21 -d -1 -p message -e 32 -c 2 -a 0 -i 14 -k RTR
+ -t 0.706012875 -s 21 -d -1 -p message -e 90 -c 2 -a 0 -i 14 -k MAC 
- -t 0.706012875 -s 21 -d -1 -p message -e 90 -c 2 -a 0 -i 14 -k MAC
h -t 0.706012875 -s 21 -d -1 -p message -e 90 -c 2 -a 0 -i 14 -k MAC
r -t 0.706733469 -s 0 -d -1 -p message -e 32 -c 2 -a 0 -i 14 -k MAC
r -t 0.706733814 -s 17 -d -1 -p message -e 32 -c 2 -a 0 -i 14 -k MAC
r -t 0.706733845 -s 9 -d -1 -p message -e 32 -c 2 -a 0 -i 14 -k MAC
r -t 0.706733943 -s 12 -d -1 -p message -e 32 -c 2 -a 0 -i 14 -k MAC
r -t 0.706734022 -s 10 -d -1 -p message -e 32 -c 2 -a 0 -i 14 -k MAC
r -t 0.706758469 -s 0 -d -1 -p message -e 32 -c 2 -a 0 -i 14 -k RTR
r -t 0.706758814 -s 17 -d -1 -p message -e 32 -c 2 -a 0 -i 14 -k RTR
r -t 0.706758845 -s 9 -d -1 -p message -e 32 -c 2 -a 0 -i 14 -k RTR
r -t 0.706758943 -s 12 -d -1 -p message -e 32 -c 2 -a 0 -i 14 -k RTR
r -t 0.706759022 -s 10 -d -1 -p message -e 32 -c 2 -a 0 -i 14 -k RTR
+ -t 0.821435127 -s 23 -d -1 -p message -e 32 -c 2 -a 0 -i 15 -k RTR 
- -t 0.821435127 -s 23 -d -1 -p message -e 32 -c 2 -a 0 -i 15 -k RTR
h -t 0.821435127 -s 23 -d -1 -p message -e 32 -c 2 -a 0 -i 15 -k RTR
+ -t 0.821550127 -s 23 -d -1 -p message -e 90 -c 2 -a 0 -i 15 -k MAC 
- -t 0.821550127 -s 23 -d -1 -p message -e 90 -c 2 -a 0 -i 15 -k MAC
h -t 0.821550127 -s 23 -d -1 -p message -e 90 -c 2 -a 0 -i 15 -k MAC
r -t 0.822270477 -s 8 -d -1 -p message -e 32 -c 2 -a 0 -i 15 -k MAC
r -t 0.822270547 -s 22 -d -1 -p message -e 32 -c 2 -a 0 -i 15 -k MAC
r -t 0.822271138 -s 10 -d -1 -p message -e 32 -c 2 -a 0 -i 15 -k MAC
r -t 0.822271227 -s 17 -d -1 -p message -e 32 -c 2 -a 0 -i 15 -k MAC
r -t 0.822271238 -s 0 -d -1 -p message -e 32 -c 2 -a 0 -i 15 -k MAC
r -t 0.822271264 -s 18 -d -1 -p message -e 32 -c 2 -a 0 -i 15 -k MAC
r -t 0.822271365 -s 13 -d -1 -p message -e 32 -c 2 -a 0 -i 15 -k MAC
r -t 0.822271389 -s 12 -d -1 -p message -e 32 -c 2 -a 0 -i 15 -k MAC
r -t 0.822295477 -s 8 -d -1 -p message -e 32 -c 2 -a 0 -i 15 -k RTR
r -t 0.822295547 -s 22 -d -1 -p message -e 32 -c 2 -a 0 -i 15 -k RTR
r -t 0.822296138 -s 10 -d -1 -p message -e 32 -c 2 -a 0 -i 15 -k RTR
r -t 0.822296227 -s 17 -d -1 -p message -e 32 -c 2 -a 0 -i 15 -k RTR
r -t 0.822296238 -s 0 -d -1 -p message -e 32 -c 2 -a 0 -i 15 -k RTR
r -t 0.822296264 -s 18 -d -1 -p message -e 32 -c 2 -a 0 -i 15 -k RTR
r -t 0.822296365 -s 13 -d -1 -p message -e 32 -c 2 -a 0 -i 15 -k RTR
r -t 0.822296389 -s 12 -d -1 -p message -e 32 -c 2 -a 0 -i 15 -k RTR
+ -t 0.848147771 -s 17 -d -1 -p message -e 32 -c 2 -a 0 -i 16 -k RTR 
- -t 0.848147771 -s 17 -d -1 -p message -e 32 -c 2 -a 0 -i 16 -k RTR
h -t 0.848147771 -s 17 -d -1 -p message -e 32 -c 2 -a 0 -i 16 -k RTR
+ -t 0.848382771 -s 17 -d -1 -p message -e 90 -c 2 -a 0 -i 16 -k MAC 
- -t 0.848382771 -s 17 -d -1 -p message -e 90 -c 2 -a 0 -i 16 -k MAC
h -t 0.848382771 -s 17 -d -1 -p message -e 90 -c 2 -a 0 -i 16 -k MAC
r -t 0.849103226 -s 0 -d -1 -p message -e 32 -c 2 -a 0 -i 16 -k MAC
r -t 0.849103687 -s 22 -d -1 -p message -e 32 -c 2 -a 0 -i 16 -k MAC
r -t 0.849103711 -s 21 -d -1 -p message -e 32 -c 2 -a 0 -i 16 -k MAC
r -t 0.849103822 -s 16 -d -1 -p message -e 32 -c 2 -a 0 -i 16 -k MAC
r -t 0.849103871 -s 23 -d -1 -p message -e 32 -c 2 -a 0 -i 16 -k MAC
r -t 0.849104044 -s 10 -d -1 -p message -e 32 -c 2 -a 0 -i 16 -k MAC
r -t 0.849128226 -s 0 -d -1 -p message -e 32 -c 2 -a 0 -i 16 -k RTR
r -t 0.849128687 -s 22 -d -1 -p message -e 32 -c 2 -a 0 -i 16 -k RTR
r -t 0.849128711 -s 21 -d -1 -p message -e 32 -c 2 -a 0 -i 16 -k RTR
r -t 0.849128822 -s 16 -d -1 -p message -e 32 -c 2 -a 0 -i 16 -k RTR
r -t 0.849128871 -s 23 -d -1 -p message -e 32 -c 2 -a 0 -i 16 -k RTR
r -t 0.849129044 -s 10 -d -1 -p message -e 32 -c 2 -a 0 -i 16 -k RTR
+ -t 0.882674688 -s 4 -d -1 -p message -e 32 -c 2 -a 0 -i 17 -k RTR 
- -t 0.882674688 -s 4 -d -1 -p message -e 32 -c 2 -a 0 -i 17 -k RTR
h -t 0.882674688 -s 4 -d -1 -p message -e 32 -c 2 -a 0 -i 17 -k RTR
+ -t 0.882909688 -s 4 -d -1 -p message -e 90 -c 2 -a 0 -i 17 -k MAC 
- -t 0.882909688 -s 4 -d -1 -p message -e 90 -c 2 -a 0 -i 17 -k MAC
h -t 0.882909688 -s 4 -d -1 -p message -e 90 -c 2 -a 0 -i 17 -k MAC
r -t 0.883629815 -s 24 -d -1 -p message -e 32 -c 2 -a 0 -i 17 -k MAC
r -t 0.883630432 -s 20 -d -1 -p message -e 32 -c 2 -a 0 -i 17 -k MAC
r -t 0.883630466 -s 16 -d -1 -p message -e 32 -c 2 -a 0 -i 17 -k MAC
r -t 0.883630643 -s 2 -d -1 -p message -e 32 -c 2 -a 0 -i 17 -k MAC
r -t 0.883630702 -s 15 -d -1 -p message -e 32 -c 2 -a 0 -i 17 -k MAC
r -t 0.883654815 -s 24 -d -1 -p message -e 32 -c 2 -a 0 -i 17 -k RTR
r -t 0.883655432 -s 20 -d -1 -p message -e 32 -c 2 -a 0 -i 17 -k RTR
r -t 0.883655466 -s 16 -d -1 -p message -e 32 -c 2 -a 0 -i 17 -k RTR
r -t 0.883655643 -s 2 -d -1 -p message -e 32 -c 2 -a 0 -i 17 -k RTR
r -t 0.883655702 -s 15 -d -1 -p message -e 32 -c 2 -a 0 -i 17 -k RTR
+ -t 0.935449221 -s 25 -d -1 -p message -e 32 -c 2 -a 0 -i 18 -k RTR 
- -t 0.935449221 -s 25 -d -1 -p message -e 32 -c 2 -a 0 -i 18 -k RTR
h -t 0.935449221 -s 25 -d -1 -p message -e 32 -c 2 -a 0 -i 18 -k RTR
+ -t 0.935884221 -s 25 -d -1 -p message -e 90 -c 2 -a 0 -i 18 -k MAC 
- -t 0.935884221 -s 25 -d -1 -p message -e 90 -c 2 -a 0 -i 18 -k MAC
h -t 0.935884221 -s 25 -d -1 -p message -e 90 -c 2 -a 0 -i 18 -k MAC
r -t 0.936604221 -s 26 -d -1 -p message -e 32 -c 2 -a 0 -i 18 -k MAC
r -t 0.936604221 -s 27 -d -1 -p message -e 32 -c 2 -a 0 -i 18 -k MAC
r -t 0.936629221 -s 26 -d -1 -p message -e 32 -c 2 -a 0 -i 18 -k RTR
r -t 0.936629221 -s 27 -d -1 -p message -e 32 -c 2 -a 0 -i 18 -k RTR
+ -t 1.039009780 -s 24 -d -1 -p message -e 32 -c 2 -a 0 -i 19 -k RTR 
- -t 1.039009780 -s 24 -d -1 -p message -e 32 -c 2 -a 0 -i 19 -k RTR
h -t 1.039009780 -s 24 -d -1 -p message -e 32 -c 2 -a 0 -i 19 -k RTR
+ -t 1.039404780 -s 24 -d -1 -p message -e 90 -c 2 -a 0 -i 19 -k MAC 
- -t 1.039404780 -s 24 -d -1 -p message -e 90 -c 2 -a 0 -i 19 -k MAC
h -t 1.039404780 -s 24 -d -1 -p message -e 90 -c 2 -a 0 -i 19 -k MAC
r -t 1.040124907 -s 4 -d -1 -p message -e 32 -c 2 -a 0 -i 19 -k MAC
r -t 1.040125618 -s 20 -d -1 -p message -e 32 -c 2 -a 0 -i 19 -k MAC
r -t 1.040125677 -s 16 -d -1 -p message -e 32 -c 2 -a 0 -i 19 -k MAC
r -t 1.040125694 -s 2 -d -1 -p message -e 32 -c 2 -a 0 -i 19 -k MAC
r -t 1.040125875 -s 15 -d -1 -p message -e 32 -c 2 -a 0 -i 19 -k MAC
r -t 1.040149907 -s 4 -d -1 -p message -e 32 -c 2 -a 0 -i 19 -k RTR
r -t 1.040150618 -s 20 -d -1 -p message -e 32 -c 2 -a 0 -i 19 -k RTR
r -t 1.040150677 -s 16 -d -1 -p message -e 32 -c 2 -a 0 -i 19 -k RTR
r -t 1.040150694 -s 2 -d -1 -p message -e 32 -c 2 -a 0 -i 19 -k RTR
r -t 1.040150875 -s 15 -d -1 -p message -e 32 -c 2 -a 0 -i 19 -k RTR
+ -t 1.119657716 -s 1 -d -1 -p message -e 32 -c 2 -a 0 -i 20 -k RTR 
- -t 1.119657716 -s 1 -d -1 -p message -e 32 -c 2 -a 0 -i 20 -k RTR
h -t 1.119657716 -s 1 -d -1 -p message -e 32 -c 2 -a 0 -i 20 -k RTR
+ -t 1.119832716 -s 1 -d -1 -p message -e 90 -c 2 -a 0 -i 20 -k MAC 
- -t 1.119832716 -s 1 -d -1 -p message -e 90 -c 2 -a 0 -i 20 -k MAC
h -t 1.119832716 -s 1 -d -1 -p message -e 90 -c 2 -a 0 -i 20 -k MAC
r -t 1.120552866 -s 14 -d -1 -p message -e 32 -c 2 -a 0 -i 20 -k MAC
r -t 1.120553151 -s 7 -d -1 -p message -e 32 -c 2 -a 0 -i 20 -k MAC
r -t 1.120577866 -s 14 -d -1 -p message -e 32 -c 2 -a 0 -i 20 -k RTR
r -t 1.120578151 -s 7 -d -1 -p message -e 32 -c 2 -a 0 -i 20 -k RTR
+ -t 1.277890258 -s 9 -d -1 -p message -e 32 -c 2 -a 0 -i 21 -k RTR 
- -t 1.277890258 -s 9 -d -1 -p message -e 32 -c 2 -a 0 -i 21 -k RTR
h -t 1.277890258 -s 9 -d -1 -p message -e 32 -c 2 -a 0 -i 21 -k RTR
+ -t 1.278565258 -s 9 -d -1 -p message -e 90 -c 2 -a 0 -i 21 -k MAC 
- -t 1.278565258 -s 9 -d -1 -p message -e 90 -c 2 -a 0 -i 21 -k MAC
h -t 1.278565258 -s 9 -d -1 -p message -e 90 -c 2 -a 0 -i 21 -k MAC
r -t 1.279285628 -s 12 -d -1 -p message -e 32 -c 2 -a 0 -i 21 -k MAC
r -t 1.279285880 -s 10 -d -1 -p message -e 32 -c 2 -a 0 -i 21 -k MAC
r -t 1.279285927 -s 3 -d -1 -p message -e 32 -c 2 -a 0 -i 21 -k MAC
r -t 1.279285956 -s 5 -d -1 -p message -e 32 -c 2 -a 0 -i 21 -k MAC
r -t 1.279286229 -s 21 -d -1 -p message -e 32 -c 2 -a 0 -i 21 -k MAC
r -t 1.279286345 -s 0 -d -1 -p message -e 32 -c 2 -a 0 -i 21 -k MAC
r -t 1.279286539 -s 28 -d -1 -p message -e 32 -c 2 -a 0 -i 21 -k MAC
r -t 1.279310628 -s 12 -d -1 -p message -e 32 -c 2 -a 0 -i 21 -k RTR
r -t 1.279310880 -s 10 -d -1 -p message -e 32 -c 2 -a 0 -i 21 -k RTR
r -t 1.279310927 -s 3 -d -1 -p message -e 32 -c 2 -a 0 -i 21 -k RTR
r -t 1.279310956 -s 5 -d -1 -p message -e 32 -c 2 -a 0 -i 21 -k RTR
r -t 1.279311229 -s 21 -d -1 -p message -e 32 -c 2 -a 0 -i 21 -k RTR
r -t 1.279311345 -s 0 -d -1 -p message -e 32 -c 2 -a 0 -i 21 -k RTR