D 26.64184 _0_ (2,-1->1,-1->8,-1->2,38.641837)
(my address : 0),Route table updated..
VWST 26.641836581034 frm 0 to 2 wst 6.000000000000 nxthp 2 [of 1]
D 40.42656 _0_ (2,1->1,8->10,2->2,50.926561)
(my address : 0),Route table updated..
VWST 40.426560548800 frm 0 to 2 wst 5.250000000000 nxthp 2 [of 1]
D 52.13682 _0_ (2,1->1,10->12,2->2,61.324324)
(my address : 0),Route table updated..
VWST 52.136824064386 frm 0 to 2 wst 4.593750000000 nxthp 2 [of 1]
D 53.13721 _0_ (1,-1->2,-1->10,-1->2,65.137209)
(my address : 0),Route table updated..
VWST 53.137209253020 frm 0 to 1 wst 6.000000000000 nxthp 2 [of 2]
D 65.46557 _0_ (1,2->1,10->14,2->1,75.965572)
(my address : 0),Route table updated..
VWST 65.465572090610 frm 0 to 1 wst 5.250000000000 nxthp 1 [of 1]
D 66.33698 _0_ (2,1->1,12->14,2->2,74.376046)
(my address : 0),Route table updated..
VWST 66.336983549739 frm 0 to 2 wst 4.019531250000 nxthp 2 [of 1]
D 78.91467 _0_ (2,1->1,14->16,2->2,85.948853)
(my address : 0),Route table updated..
VWST 78.914673308148 frm 0 to 2 wst 3.517089843750 nxthp 2 [of 1]
D 79.98849 _0_ (1,1->1,14->16,1->1,89.175987)
(my address : 0),Route table updated..
VWST 79.988487013123 frm 0 to 1 wst 4.593750000000 nxthp 1 [of 1]
D 91.41152 _0_ (2,1->1,16->18,2->2,97.566422)
(my address : 0),Route table updated..
VWST 91.411515233461 frm 0 to 2 wst 3.077453613281 nxthp 2 [of 1]
D 92.61567 _0_ (1,1->1,16->18,1->1,100.654735)
(my address : 0),Route table updated..
VWST 92.615672837113 frm 0 to 1 wst 4.019531250000 nxthp 1 [of 1]
D 102.78012 _0_ (2,1->1,18->20,2->2,108.165663)
(my address : 0),Route table updated..
VWST 102.780119358256 frm 0 to 2 wst 2.692771911621 nxthp 2 [of 1]
D 105.81509 _0_ (1,1->1,18->20,1->1,112.849267)
(my address : 0),Route table updated..
VWST 105.815086840196 frm 0 to 1 wst 3.517089843750 nxthp 1 [of 1]
D 115.68833 _0_ (2,1->1,20->22,2->2,120.400677)
(my address : 0),Route table updated..
VWST 115.688326531073 frm 0 to 2 wst 2.356175422668 nxthp 2 [of 1]
D 118.59112 _0_ (1,1->1,20->22,1->1,124.746023)
(my address : 0),Route table updated..
VWST 118.591115623054 frm 0 to 1 wst 3.077453613281 nxthp 1 [of 1]
D 129.27376 _0_ (2,1->1,22->24,2->2,133.397065)
(my address : 0),Route table updated..
VWST 129.273758211264 frm 0 to 2 wst 2.061653494835 nxthp 2 [of 1]
D 140.74405 _0_ (1,1->2,22->24,1->2,146.129594)
(my address : 0),Route table updated..
VWST 140.744050246424 frm 0 to 1 wst 2.692771911621 nxthp 2 [of 2]
D 140.74405 _0_ (2,1->1,24->26,2->2,144.351944)
(my address : 0),Route table updated..
VWST 140.744050246424 frm 0 to 2 wst 1.803946807981 nxthp 2 [of 1]
2.96150 _2_ (1,1->1,24->26,1->1,147.084807)
(my address : 2),Route table updated..
VWST 142.961499856602 frm 2 to 1 wst 2.061653494835 nxthp 1 [of 1]
D 145.28467 _2_ (0,1->1,24->26,0->0,148.892560)
(my address : 2),Route table updated..
VWST 145.284666873126 frm 2 to 0 wst 1.803946807981 nxthp 0 [of 1]
