s 0.001560381 _0_ RTR  --- 0 message 32 [0 0 0 0] ------- [0:255 -1:255 32 0] 
r 0.002381044 _2_ RTR  --- 0 message 32 [0 ffffffff 0 800] ------- [0:255 -1:255 32 0] 
s 0.036574082 _2_ RTR  --- 1 message 32 [0 0 0 0] ------- [2:255 -1:255 32 0] 
r 0.037754745 _0_ RTR  --- 1 message 32 [0 ffffffff 2 800] ------- [2:255 -1:255 32 0] 
r 0.037754748 _1_ RTR  --- 1 message 32 [0 ffffffff 2 800] ------- [2:255 -1:255 32 0] 
s 1.120124667 _1_ RTR  --- 2 message 32 [0 0 0 0] ------- [1:255 -1:255 32 0] 
r 1.121485334 _2_ RTR  --- 2 message 32 [0 ffffffff 1 800] ------- [1:255 -1:255 32 0] 
s 12.003519127 _2_ RTR  --- 3 message 32 [0 0 0 0] ------- [2:255 -1:255 32 0] 
r 12.004579790 _0_ RTR  --- 3 message 32 [0 ffffffff 2 800] ------- [2:255 -1:255 32 0] 
r 12.004579794 _1_ RTR  --- 3 message 32 [0 ffffffff 2 800] ------- [2:255 -1:255 32 0] 
s 12.038696137 _1_ RTR  --- 5 message 32 [0 0 0 0] ------- [1:255 -1:255 32 0] 
s 12.039502798 _0_ RTR  --- 4 message 32 [0 0 0 0] ------- [0:255 -1:255 32 0] 
r 12.039836804 _2_ RTR  --- 5 message 32 [0 ffffffff 1 800] ------- [1:255 -1:255 32 0] 
r 12.041172130 _2_ RTR  --- 4 message 32 [0 ffffffff 0 800] ------- [0:255 -1:255 32 0] 
s 13.126671822 _2_ RTR  --- 6 message 44 [0 0 0 0] ------- [2:255 -1:255 32 0] 
r 13.128028485 _0_ RTR  --- 6 message 44 [0 ffffffff 2 800] ------- [2:255 -1:255 32 0] 
r 13.128028489 _1_ RTR  --- 6 message 44 [0 ffffffff 2 800] ------- [2:255 -1:255 32 0] 
s 15.083950344 _2_ RTR  --- 7 message 56 [0 0 0 0] ------- [2:255 -1:255 32 0] 
r 15.085503008 _0_ RTR  --- 7 message 56 [0 ffffffff 2 800] ------- [2:255 -1:255 32 0] 
r 15.085503011 _1_ RTR  --- 7 message 56 [0 ffffffff 2 800] ------- [2:255 -1:255 32 0] 
s 15.097424896 _0_ RTR  --- 8 message 32 [0 0 0 0] ------- [0:255 -1:255 32 0] 
r 15.098605560 _2_ RTR  --- 8 message 32 [0 ffffffff 0 800] ------- [0:255 -1:255 32 0] 
s 16.148645704 _1_ RTR  --- 9 message 32 [0 0 0 0] ------- [1:255 -1:255 32 0] 
r 16.149666371 _2_ RTR  --- 9 message 32 [0 ffffffff 1 800] ------- [1:255 -1:255 32 0] 
s 24.013454229 _1_ RTR  --- 10 message 32 [0 0 0 0] ------- [1:255 -1:255 32 0] 
r 24.014494896 _2_ RTR  --- 10 message 32 [0 ffffffff 1 800] ------- [1:255 -1:255 32 0] 
s 25.129148798 _0_ RTR  --- 11 message 32 [0 0 0 0] ------- [0:255 -1:255 32 0] 
r 25.130029462 _2_ RTR  --- 11 message 32 [0 ffffffff 0 800] ------- [0:255 -1:255 32 0] 
s 30.230333893 _0_ RTR  --- 12 message 56 [0 0 0 0] ------- [0:255 -1:255 32 0] 
r 30.231626557 _2_ RTR  --- 12 message 56 [0 ffffffff 0 800] ------- [0:255 -1:255 32 0] 
s 30.245864650 _2_ RTR  --- 13 message 44 [0 0 0 0] ------- [2:255 -1:255 32 0] 
r 30.246781313 _0_ RTR  --- 13 message 44 [0 ffffffff 2 800] ------- [2:255 -1:255 32 0] 
r 30.246781316 _1_ RTR  --- 13 message 44 [0 ffffffff 2 800] ------- [2:255 -1:255 32 0] 
s 31.169048449 _1_ RTR  --- 14 message 44 [0 0 0 0] ------- [1:255 -1:255 32 0] 
r 31.170185116 _2_ RTR  --- 14 message 44 [0 ffffffff 1 800] ------- [1:255 -1:255 32 0] 
s 45.294789341 _0_ RTR  --- 15 message 56 [0 0 0 0] ------- [0:255 -1:255 32 0] 
r 45.296042004 _2_ RTR  --- 15 message 56 [0 ffffffff 0 800] ------- [0:255 -1:255 32 0] 
s 45.390756315 _2_ RTR  --- 16 message 44 [0 0 0 0] ------- [2:255 -1:255 32 0] 
r 45.392152978 _0_ RTR  --- 16 message 44 [0 ffffffff 2 800] ------- [2:255 -1:255 32 0] 
r 45.392152982 _1_ RTR  --- 16 message 44 [0 ffffffff 2 800] ------- [2:255 -1:255 32 0] 
s 46.287158209 _1_ RTR  --- 17 message 44 [0 0 0 0] ------- [1:255 -1:255 32 0] 
r 46.288114876 _2_ RTR  --- 17 message 44 [0 ffffffff 1 800] ------- [1:255 -1:255 32 0] 
s 60.337410077 _0_ RTR  --- 18 message 56 [0 0 0 0] ------- [0:255 -1:255 32 0] 
r 60.338522740 _2_ RTR  --- 18 message 56 [0 ffffffff 0 800] ------- [0:255 -1:255 32 0] 
s 60.425258165 _2_ RTR  --- 19 message 44 [0 0 0 0] ------- [2:255 -1:255 32 0] 
r 60.426234828 _0_ RTR  --- 19 message 44 [0 ffffffff 2 800] ------- [2:255 -1:255 32 0] 
r 60.426234831 _1_ RTR  --- 19 message 44 [0 ffffffff 2 800] ------- [2:255 -1:255 32 0] 
s 61.304415989 _1_ RTR  --- 20 message 44 [0 0 0 0] ------- [1:255 -1:255 32 0] 
r 61.305392655 _2_ RTR  --- 20 message 44 [0 ffffffff 1 800] ------- [1:255 -1:255 32 0] 
s 75.438899318 _0_ RTR  --- 21 message 56 [0 0 0 0] ------- [0:255 -1:255 32 0] 
r 75.440351981 _2_ RTR  --- 21 message 56 [0 ffffffff 0 800] ------- [0:255 -1:255 32 0] 
s 75.593891453 _2_ RTR  --- 22 message 44 [0 0 0 0] ------- [2:255 -1:255 32 0] 
r 75.595108117 _0_ RTR  --- 22 message 44 [0 ffffffff 2 800] ------- [2:255 -1:255 32 0] 
r 75.595108120 _1_ RTR  --- 22 message 44 [0 ffffffff 2 800] ------- [2:255 -1:255 32 0] 
s 76.416628060 _1_ RTR  --- 23 message 44 [0 0 0 0] ------- [1:255 -1:255 32 0] 
r 76.417764727 _2_ RTR  --- 23 message 44 [0 ffffffff 1 800] ------- [1:255 -1:255 32 0] 
s 90.553977348 _0_ RTR  --- 24 message 56 [0 0 0 0] ------- [0:255 -1:255 32 0] 
r 90.555390011 _2_ RTR  --- 24 message 56 [0 ffffffff 0 800] ------- [0:255 -1:255 32 0] 
s 90.620303770 _2_ RTR  --- 25 message 44 [0 0 0 0] ------- [2:255 -1:255 32 0] 
r 90.621220433 _0_ RTR  --- 25 message 44 [0 ffffffff 2 800] ------- [2:255 -1:255 32 0] 
r 90.621220437 _1_ RTR  --- 25 message 44 [0 ffffffff 2 800] ------- [2:255 -1:255 32 0] 
s 91.421726886 _1_ RTR  --- 26 message 44 [0 0 0 0] ------- [1:255 -1:255 32 0] 
r 91.423063552 _2_ RTR  --- 26 message 44 [0 ffffffff 1 800] ------- [1:255 -1:255 32 0] 
s 105.625476289 _2_ RTR  --- 27 message 56 [0 0 0 0] ------- [2:255 -1:255 32 0] 
r 105.626508952 _0_ RTR  --- 27 message 56 [0 ffffffff 2 800] ------- [2:255 -1:255 32 0] 
r 105.626508955 _1_ RTR  --- 27 message 56 [0 ffffffff 2 800] ------- [2:255 -1:255 32 0] 
s 105.733920905 _0_ RTR  --- 28 message 32 [0 0 0 0] ------- [0:255 -1:255 32 0] 
r 105.734801568 _2_ RTR  --- 28 message 32 [0 ffffffff 0 800] ------- [0:255 -1:255 32 0] 
s 106.578465518 _1_ RTR  --- 29 message 32 [0 0 0 0] ------- [1:255 -1:255 32 0] 
r 106.579306185 _2_ RTR  --- 29 message 32 [0 ffffffff 1 800] ------- [1:255 -1:255 32 0] 
s 120.743136779 _2_ RTR  --- 30 message 56 [0 0 0 0] ------- [2:255 -1:255 32 0] 
r 120.744169442 _0_ RTR  --- 30 message 56 [0 ffffffff 2 800] ------- [2:255 -1:255 32 0] 
r 120.744169446 _1_ RTR  --- 30 message 56 [0 ffffffff 2 800] ------- [2:255 -1:255 32 0] 
s 120.778287851 _0_ RTR  --- 31 message 32 [0 0 0 0] ------- [0:255 -1:255 32 0] 
r 120.779488514 _2_ RTR  --- 31 message 32 [0 ffffffff 0 800] ------- [0:255 -1:255 32 0] 
s 121.648843528 _1_ RTR  --- 32 message 32 [0 0 0 0] ------- [1:255 -1:255 32 0] 
r 121.650204195 _2_ RTR  --- 32 message 32 [0 ffffffff 1 800] ------- [1:255 -1:255 32 0] 
s 135.828843076 _2_ RTR  --- 33 message 56 [0 0 0 0] ------- [2:255 -1:255 32 0] 
r 135.829855739 _0_ RTR  --- 33 message 56 [0 ffffffff 2 800] ------- [2:255 -1:255 32 0] 
r 135.829855743 _1_ RTR  --- 33 message 56 [0 ffffffff 2 800] ------- [2:255 -1:255 32 0] 
s 135.874948216 _0_ RTR  --- 34 message 32 [0 0 0 0] ------- [0:255 -1:255 32 0] 
r 135.876328879 _2_ RTR  --- 34 message 32 [0 ffffffff 0 800] ------- [0:255 -1:255 32 0] 
s 136.675438057 _1_ RTR  --- 35 message 32 [0 0 0 0] ------- [1:255 -1:255 32 0] 
r 136.676778724 _2_ RTR  --- 35 message 32 [0 ffffffff 1 800] ------- [1:255 -1:255 32 0] 
