M 0.00000 0 (201.65, 232.66, 0.00), (201.65, 232.66), 8.54
s 0.003091411 _0_ RTR  --- 0 message 32 [0 0 0 0] ------- [0:255 -1:255 32 0] 
r 0.004211492 _5_ RTR  --- 0 message 32 [0 ffffffff 0 800] ------- [0:255 -1:255 32 0] 
r 0.004211493 _18_ RTR  --- 0 message 32 [0 ffffffff 0 800] ------- [0:255 -1:255 32 0] 
r 0.004211578 _19_ RTR  --- 0 message 32 [0 ffffffff 0 800] ------- [0:255 -1:255 32 0] 
r 0.004211653 _17_ RTR  --- 0 message 32 [0 ffffffff 0 800] ------- [0:255 -1:255 32 0] 
r 0.004211801 _15_ RTR  --- 0 message 32 [0 ffffffff 0 800] ------- [0:255 -1:255 32 0] 
r 0.004211810 _27_ RTR  --- 0 message 32 [0 ffffffff 0 800] ------- [0:255 -1:255 32 0] 
r 0.004211848 _12_ RTR  --- 0 message 32 [0 ffffffff 0 800] ------- [0:255 -1:255 32 0] 
r 0.004211860 _6_ RTR  --- 0 message 32 [0 ffffffff 0 800] ------- [0:255 -1:255 32 0] 
r 0.004211882 _29_ RTR  --- 0 message 32 [0 ffffffff 0 800] ------- [0:255 -1:255 32 0] 
r 0.004211967 _8_ RTR  --- 0 message 32 [0 ffffffff 0 800] ------- [0:255 -1:255 32 0] 
r 0.004212116 _9_ RTR  --- 0 message 32 [0 ffffffff 0 800] ------- [0:255 -1:255 32 0] 
r 0.004212184 _1_ RTR  --- 0 message 32 [0 ffffffff 0 800] ------- [0:255 -1:255 32 0] 
r 0.004212222 _20_ RTR  --- 0 message 32 [0 ffffffff 0 800] ------- [0:255 -1:255 32 0] 
r 0.004212241 _10_ RTR  --- 0 message 32 [0 ffffffff 0 800] ------- [0:255 -1:255 32 0] 
s 0.037458776 _2_ RTR  --- 1 message 32 [0 0 0 0] ------- [2:255 -1:255 32 0] 
r 0.038558813 _13_ RTR  --- 1 message 32 [0 ffffffff 2 800] ------- [2:255 -1:255 32 0] 
r 0.038559357 _22_ RTR  --- 1 message 32 [0 ffffffff 2 800] ------- [2:255 -1:255 32 0] 
r 0.038559419 _3_ RTR  --- 1 message 32 [0 ffffffff 2 800] ------- [2:255 -1:255 32 0] 
r 0.038559537 _7_ RTR  --- 1 message 32 [0 ffffffff 2 800] ------- [2:255 -1:255 32 0] 
r 0.038559598 _21_ RTR  --- 1 message 32 [0 ffffffff 2 800] ------- [2:255 -1:255 32 0] 
r 0.038559598 _28_ RTR  --- 1 message 32 [0 ffffffff 2 800] ------- [2:255 -1:255 32 0] 
s 0.087462768 _13_ RTR  --- 2 message 32 [0 0 0 0] ------- [13:255 -1:255 32 0] 
r 0.088502805 _2_ RTR  --- 2 message 32 [0 ffffffff d 800] ------- [13:255 -1:255 32 0] 
r 0.088503382 _22_ RTR  --- 2 message 32 [0 ffffffff d 800] ------- [13:255 -1:255 32 0] 
r 0.088503441 _3_ RTR  --- 2 message 32 [0 ffffffff d 800] ------- [13:255 -1:255 32 0] 
r 0.088503548 _7_ RTR  --- 2 message 32 [0 ffffffff d 800] ------- [13:255 -1:255 32 0] 
r 0.088503574 _28_ RTR  --- 2 message 32 [0 ffffffff d 800] ------- [13:255 -1:255 32 0] 
s 0.177365656 _3_ RTR  --- 3 message 32 [0 0 0 0] ------- [3:255 -1:255 32 0] 
r 0.178305776 _22_ RTR  --- 3 message 32 [0 ffffffff 3 800] ------- [3:255 -1:255 32 0] 
r 0.178305925 _14_ RTR  --- 3 message 32 [0 ffffffff 3 800] ------- [3:255 -1:255 32 0] 
r 0.178305983 _25_ RTR  --- 3 message 32 [0 ffffffff 3 800] ------- [3:255 -1:255 32 0] 
r 0.178305986 _7_ RTR  --- 3 message 32 [0 ffffffff 3 800] ------- [3:255 -1:255 32 0] 
r 0.178306080 _24_ RTR  --- 3 message 32 [0 ffffffff 3 800] ------- [3:255 -1:255 32 0] 
r 0.178306084 _21_ RTR  --- 3 message 32 [0 ffffffff 3 800] ------- [3:255 -1:255 32 0] 
r 0.178306105 _16_ RTR  --- 3 message 32 [0 ffffffff 3 800] ------- [3:255 -1:255 32 0] 
r 0.178306137 _4_ RTR  --- 3 message 32 [0 ffffffff 3 800] ------- [3:255 -1:255 32 0] 
r 0.178306298 _2_ RTR  --- 3 message 32 [0 ffffffff 3 800] ------- [3:255 -1:255 32 0] 
r 0.178306323 _20_ RTR  --- 3 message 32 [0 ffffffff 3 800] ------- [3:255 -1:255 32 0] 
r 0.178306329 _13_ RTR  --- 3 message 32 [0 ffffffff 3 800] ------- [3:255 -1:255 32 0] 
r 0.178306373 _11_ RTR  --- 3 message 32 [0 ffffffff 3 800] ------- [3:255 -1:255 32 0] 
s 0.191634337 _19_ RTR  --- 4 message 32 [0 0 0 0] ------- [19:255 -1:255 32 0] 
r 0.192634423 _18_ RTR  --- 4 message 32 [0 ffffffff 13 800] ------- [19:255 -1:255 32 0] 
r 0.192634504 _0_ RTR  --- 4 message 32 [0 ffffffff 13 800] ------- [19:255 -1:255 32 0] 
r 0.192634573 _5_ RTR  --- 4 message 32 [0 ffffffff 13 800] ------- [19:255 -1:255 32 0] 
r 0.192634599 _27_ RTR  --- 4 message 32 [0 ffffffff 13 800] ------- [19:255 -1:255 32 0] 
r 0.192634649 _12_ RTR  --- 4 message 32 [0 ffffffff 13 800] ------- [19:255 -1:255 32 0] 
r 0.192634664 _6_ RTR  --- 4 message 32 [0 ffffffff 13 800] ------- [19:255 -1:255 32 0] 
r 0.192634666 _17_ RTR  --- 4 message 32 [0 ffffffff 13 800] ------- [19:255 -1:255 32 0] 
r 0.192634694 _29_ RTR  --- 4 message 32 [0 ffffffff 13 800] ------- [19:255 -1:255 32 0] 
r 0.192634782 _15_ RTR  --- 4 message 32 [0 ffffffff 13 800] ------- [19:255 -1:255 32 0] 
r 0.192634933 _8_ RTR  --- 4 message 32 [0 ffffffff 13 800] ------- [19:255 -1:255 32 0] 
r 0.192635015 _10_ RTR  --- 4 message 32 [0 ffffffff 13 800] ------- [19:255 -1:255 32 0] 
r 0.192635040 _1_ RTR  --- 4 message 32 [0 ffffffff 13 800] ------- [19:255 -1:255 32 0] 
r 0.192635076 _9_ RTR  --- 4 message 32 [0 ffffffff 13 800] ------- [19:255 -1:255 32 0] 
r 0.192635091 _20_ RTR  --- 4 message 32 [0 ffffffff 13 800] ------- [19:255 -1:255 32 0] 
s 0.234603229 _15_ RTR  --- 5 message 32 [0 0 0 0] ------- [15:255 -1:255 32 0] 
r 0.235643545 _9_ RTR  --- 5 message 32 [0 ffffffff f 800] ------- [15:255 -1:255 32 0] 
r 0.235643620 _0_ RTR  --- 5 message 32 [0 ffffffff f 800] ------- [15:255 -1:255 32 0] 
r 0.235643649 _18_ RTR  --- 5 message 32 [0 ffffffff f 800] ------- [15:255 -1:255 32 0] 
r 0.235643655 _29_ RTR  --- 5 message 32 [0 ffffffff f 800] ------- [15:255 -1:255 32 0] 
r 0.235643664 _6_ RTR  --- 5 message 32 [0 ffffffff f 800] ------- [15:255 -1:255 32 0] 
r 0.235643667 _5_ RTR  --- 5 message 32 [0 ffffffff f 800] ------- [15:255 -1:255 32 0] 
r 0.235643670 _12_ RTR  --- 5 message 32 [0 ffffffff f 800] ------- [15:255 -1:255 32 0] 
r 0.235643674 _19_ RTR  --- 5 message 32 [0 ffffffff f 800] ------- [15:255 -1:255 32 0] 
r 0.235643761 _20_ RTR  --- 5 message 32 [0 ffffffff f 800] ------- [15:255 -1:255 32 0] 
r 0.235643851 _17_ RTR  --- 5 message 32 [0 ffffffff f 800] ------- [15:255 -1:255 32 0] 
r 0.235643926 _4_ RTR  --- 5 message 32 [0 ffffffff f 800] ------- [15:255 -1:255 32 0] 
r 0.235643931 _27_ RTR  --- 5 message 32 [0 ffffffff f 800] ------- [15:255 -1:255 32 0] 
r 0.235643988 _24_ RTR  --- 5 message 32 [0 ffffffff f 800] ------- [15:255 -1:255 32 0] 
s 0.333839210 _12_ RTR  --- 6 message 32 [0 0 0 0] ------- [12:255 -1:255 32 0] 
r 0.334739230 _6_ RTR  --- 6 message 32 [0 ffffffff c 800] ------- [12:255 -1:255 32 0] 
r 0.334739266 _29_ RTR  --- 6 message 32 [0 ffffffff c 800] ------- [12:255 -1:255 32 0] 
r 0.334739522 _19_ RTR  --- 6 message 32 [0 ffffffff c 800] ------- [12:255 -1:255 32 0] 
r 0.334739590 _18_ RTR  --- 6 message 32 [0 ffffffff c 800] ------- [12:255 -1:255 32 0] 
r 0.334739638 _27_ RTR  --- 6 message 32 [0 ffffffff c 800] ------- [12:255 -1:255 32 0] 
r 0.334739647 _0_ RTR  --- 6 message 32 [0 ffffffff c 800] ------- [12:255 -1:255 32 0] 
r 0.334739651 _15_ RTR  --- 6 message 32 [0 ffffffff c 800] ------- [12:255 -1:255 32 0] 
r 0.334739698 _20_ RTR  --- 6 message 32 [0 ffffffff c 800] ------- [12:255 -1:255 32 0] 
r 0.334739728 _5_ RTR  --- 6 message 32 [0 ffffffff c 800] ------- [12:255 -1:255 32 0] 
r 0.334739838 _9_ RTR  --- 6 message 32 [0 ffffffff c 800] ------- [12:255 -1:255 32 0] 
r 0.334739850 _17_ RTR  --- 6 message 32 [0 ffffffff c 800] ------- [12:255 -1:255 32 0] 
r 0.334739896 _10_ RTR  --- 6 message 32 [0 ffffffff c 800] ------- [12:255 -1:255 32 0] 
r 0.334739920 _4_ RTR  --- 6 message 32 [0 ffffffff c 800] ------- [12:255 -1:255 32 0] 
r 0.334739988 _24_ RTR  --- 6 message 32 [0 ffffffff c 800] ------- [12:255 -1:255 32 0] 
s 0.351472650 _18_ RTR  --- 7 message 32 [0 0 0 0] ------- [18:255 -1:255 32 0] 
r 0.352592732 _0_ RTR  --- 7 message 32 [0 ffffffff 12 800] ------- [18:255 -1:255 32 0] 
r 0.352592737 _19_ RTR  --- 7 message 32 [0 ffffffff 12 800] ------- [18:255 -1:255 32 0] 
r 0.352592800 _5_ RTR  --- 7 message 32 [0 ffffffff 12 800] ------- [18:255 -1:255 32 0] 
r 0.352592916 _17_ RTR  --- 7 message 32 [0 ffffffff 12 800] ------- [18:255 -1:255 32 0] 
r 0.352592973 _27_ RTR  --- 7 message 32 [0 ffffffff 12 800] ------- [18:255 -1:255 32 0] 
r 0.352593030 _12_ RTR  --- 7 message 32 [0 ffffffff 12 800] ------- [18:255 -1:255 32 0] 
r 0.352593043 _6_ RTR  --- 7 message 32 [0 ffffffff 12 800] ------- [18:255 -1:255 32 0] 
r 0.352593070 _29_ RTR  --- 7 message 32 [0 ffffffff 12 800] ------- [18:255 -1:255 32 0] 
r 0.352593070 _15_ RTR  --- 7 message 32 [0 ffffffff 12 800] ------- [18:255 -1:255 32 0] 
r 0.352593209 _8_ RTR  --- 7 message 32 [0 ffffffff 12 800] ------- [18:255 -1:255 32 0] 
r 0.352593376 _1_ RTR  --- 7 message 32 [0 ffffffff 12 800] ------- [18:255 -1:255 32 0] 
r 0.352593378 _9_ RTR  --- 7 message 32 [0 ffffffff 12 800] ------- [18:255 -1:255 32 0] 
r 0.352593401 _10_ RTR  --- 7 message 32 [0 ffffffff 12 800] ------- [18:255 -1:255 32 0] 
r 0.352593440 _20_ RTR  --- 7 message 32 [0 ffffffff 12 800] ------- [18:255 -1:255 32 0] 
s 0.436386259 _29_ RTR  --- 8 message 32 [0 0 0 0] ------- [29:255 -1:255 32 0] 
r 0.437446296 _6_ RTR  --- 8 message 32 [0 ffffffff 1d 800] ------- [29:255 -1:255 32 0] 
r 0.437446315 _12_ RTR  --- 8 message 32 [0 ffffffff 1d 800] ------- [29:255 -1:255 32 0] 
r 0.437446617 _19_ RTR  --- 8 message 32 [0 ffffffff 1d 800] ------- [29:255 -1:255 32 0] 
r 0.437446678 _18_ RTR  --- 8 message 32 [0 ffffffff 1d 800] ------- [29:255 -1:255 32 0] 
r 0.437446685 _15_ RTR  --- 8 message 32 [0 ffffffff 1d 800] ------- [29:255 -1:255 32 0] 
r 0.437446691 _20_ RTR  --- 8 message 32 [0 ffffffff 1d 800] ------- [29:255 -1:255 32 0] 
r 0.437446730 _0_ RTR  --- 8 message 32 [0 ffffffff 1d 800] ------- [29:255 -1:255 32 0] 
r 0.437446744 _27_ RTR  --- 8 message 32 [0 ffffffff 1d 800] ------- [29:255 -1:255 32 0] 
r 0.437446811 _5_ RTR  --- 8 message 32 [0 ffffffff 1d 800] ------- [29:255 -1:255 32 0] 
r 0.437446847 _9_ RTR  --- 8 message 32 [0 ffffffff 1d 800] ------- [29:255 -1:255 32 0] 
r 0.437446913 _4_ RTR  --- 8 message 32 [0 ffffffff 1d 800] ------- [29:255 -1:255 32 0] 
r 0.437446942 _17_ RTR  --- 8 message 32 [0 ffffffff 1d 800] ------- [29:255 -1:255 32 0] 
r 0.437446981 _24_ RTR  --- 8 message 32 [0 ffffffff 1d 800] ------- [29:255 -1:255 32 0] 
r 0.437446992 _10_ RTR  --- 8 message 32 [0 ffffffff 1d 800] ------- [29:255 -1:255 32 0] 
r 0.437447081 _25_ RTR  --- 8 message 32 [0 ffffffff 1d 800] ------- [29:255 -1:255 32 0] 
s 0.470117073 _8_ RTR  --- 9 message 32 [0 0 0 0] ------- [8:255 -1:255 32 0] 
r 0.471397393 _17_ RTR  --- 9 message 32 [0 ffffffff 8 800] ------- [8:255 -1:255 32 0] 
r 0.471397532 _1_ RTR  --- 9 message 32 [0 ffffffff 8 800] ------- [8:255 -1:255 32 0] 
r 0.471397576 _5_ RTR  --- 9 message 32 [0 ffffffff 8 800] ------- [8:255 -1:255 32 0] 
r 0.471397621 _27_ RTR  --- 9 message 32 [0 ffffffff 8 800] ------- [8:255 -1:255 32 0] 
r 0.471397629 _0_ RTR  --- 9 message 32 [0 ffffffff 8 800] ------- [8:255 -1:255 32 0] 
r 0.471397632 _18_ RTR  --- 9 message 32 [0 ffffffff 8 800] ------- [8:255 -1:255 32 0] 
r 0.471397669 _19_ RTR  --- 9 message 32 [0 ffffffff 8 800] ------- [8:255 -1:255 32 0] 
r 0.471397896 _23_ RTR  --- 9 message 32 [0 ffffffff 8 800] ------- [8:255 -1:255 32 0] 
r 0.471397901 _26_ RTR  --- 9 message 32 [0 ffffffff 8 800] ------- [8:255 -1:255 32 0] 
s 0.521504883 _22_ RTR  --- 10 message 32 [0 0 0 0] ------- [22:255 -1:255 32 0] 
r 0.522405004 _3_ RTR  --- 10 message 32 [0 ffffffff 16 800] ------- [22:255 -1:255 32 0] 
r 0.522405182 _14_ RTR  --- 10 message 32 [0 ffffffff 16 800] ------- [22:255 -1:255 32 0] 
r 0.522405244 _25_ RTR  --- 10 message 32 [0 ffffffff 16 800] ------- [22:255 -1:255 32 0] 
r 0.522405324 _7_ RTR  --- 10 message 32 [0 ffffffff 16 800] ------- [22:255 -1:255 32 0] 
r 0.522405421 _21_ RTR  --- 10 message 32 [0 ffffffff 16 800] ------- [22:255 -1:255 32 0] 
r 0.522405422 _24_ RTR  --- 10 message 32 [0 ffffffff 16 800] ------- [22:255 -1:255 32 0] 
r 0.522405442 _16_ RTR  --- 10 message 32 [0 ffffffff 16 800] ------- [22:255 -1:255 32 0] 
r 0.522405464 _2_ RTR  --- 10 message 32 [0 ffffffff 16 800] ------- [22:255 -1:255 32 0] 
r 0.522405476 _4_ RTR  --- 10 message 32 [0 ffffffff 16 800] ------- [22:255 -1:255 32 0] 
r 0.522405498 _13_ RTR  --- 10 message 32 [0 ffffffff 16 800] ------- [22:255 -1:255 32 0] 
r 0.522405650 _20_ RTR  --- 10 message 32 [0 ffffffff 16 800] ------- [22:255 -1:255 32 0] 
r 0.522405706 _11_ RTR  --- 10 message 32 [0 ffffffff 16 800] ------- [22:255 -1:255 32 0] 
s 0.626302117 _10_ RTR  --- 11 message 32 [0 0 0 0] ------- [10:255 -1:255 32 0] 
r 0.627242404 _23_ RTR  --- 11 message 32 [0 ffffffff a 800] ------- [10:255 -1:255 32 0] 
r 0.627242458 _26_ RTR  --- 11 message 32 [0 ffffffff a 800] ------- [10:255 -1:255 32 0] 
r 0.627242552 _27_ RTR  --- 11 message 32 [0 ffffffff a 800] ------- [10:255 -1:255 32 0] 
r 0.627242636 _1_ RTR  --- 11 message 32 [0 ffffffff a 800] ------- [10:255 -1:255 32 0] 
r 0.627242795 _19_ RTR  --- 11 message 32 [0 ffffffff a 800] ------- [10:255 -1:255 32 0] 
r 0.627242804 _12_ RTR  --- 11 message 32 [0 ffffffff a 800] ------- [10:255 -1:255 32 0] 
r 0.627242820 _6_ RTR  --- 11 message 32 [0 ffffffff a 800] ------- [10:255 -1:255 32 0] 
r 0.627242850 _29_ RTR  --- 11 message 32 [0 ffffffff a 800] ------- [10:255 -1:255 32 0] 
r 0.627242868 _18_ RTR  --- 11 message 32 [0 ffffffff a 800] ------- [10:255 -1:255 32 0] 
r 0.627242948 _0_ RTR  --- 11 message 32 [0 ffffffff a 800] ------- [10:255 -1:255 32 0] 
s 0.633203961 _6_ RTR  --- 12 message 32 [0 0 0 0] ------- [6:255 -1:255 32 0] 
r 0.634603981 _12_ RTR  --- 12 message 32 [0 ffffffff 6 800] ------- [6:255 -1:255 32 0] 
r 0.634603997 _29_ RTR  --- 12 message 32 [0 ffffffff 6 800] ------- [6:255 -1:255 32 0] 
r 0.634604289 _19_ RTR  --- 12 message 32 [0 ffffffff 6 800] ------- [6:255 -1:255 32 0] 
r 0.634604354 _18_ RTR  --- 12 message 32 [0 ffffffff 6 800] ------- [6:255 -1:255 32 0] 
r 0.634604396 _15_ RTR  --- 12 message 32 [0 ffffffff 6 800] ------- [6:255 -1:255 32 0] 
r 0.634604409 _27_ RTR  --- 12 message 32 [0 ffffffff 6 800] ------- [6:255 -1:255 32 0] 
r 0.634604410 _0_ RTR  --- 12 message 32 [0 ffffffff 6 800] ------- [6:255 -1:255 32 0] 
r 0.634604430 _20_ RTR  --- 12 message 32 [0 ffffffff 6 800] ------- [6:255 -1:255 32 0] 
r 0.634604491 _5_ RTR  --- 12 message 32 [0 ffffffff 6 800] ------- [6:255 -1:255 32 0] 
r 0.634604575 _9_ RTR  --- 12 message 32 [0 ffffffff 6 800] ------- [6:255 -1:255 32 0] 
r 0.634604616 _17_ RTR  --- 12 message 32 [0 ffffffff 6 800] ------- [6:255 -1:255 32 0] 
r 0.634604651 _4_ RTR  --- 12 message 32 [0 ffffffff 6 800] ------- [6:255 -1:255 32 0] 
r 0.634604664 _10_ RTR  --- 12 message 32 [0 ffffffff 6 800] ------- [6:255 -1:255 32 0] 
r 0.634604719 _24_ RTR  --- 12 message 32 [0 ffffffff 6 800] ------- [6:255 -1:255 32 0] 
s 0.703066137 _21_ RTR  --- 13 message 32 [0 0 0 0] ------- [21:255 -1:255 32 0] 
r 0.704426158 _16_ RTR  --- 13 message 32 [0 ffffffff 15 800] ------- [21:255 -1:255 32 0] 
r 0.704426235 _7_ RTR  --- 13 message 32 [0 ffffffff 15 800] ------- [21:255 -1:255 32 0] 
r 0.704426429 _11_ RTR  --- 13 message 32 [0 ffffffff 15 800] ------- [21:255 -1:255 32 0] 
r 0.704426476 _24_ RTR  --- 13 message 32 [0 ffffffff 15 800] ------- [21:255 -1:255 32 0] 
r 0.704426536 _4_ RTR  --- 13 message 32 [0 ffffffff 15 800] ------- [21:255 -1:255 32 0] 
r 0.704426565 _3_ RTR  --- 13 message 32 [0 ffffffff 15 800] ------- [21:255 -1:255 32 0] 
r 0.704426675 _22_ RTR  --- 13 message 32 [0 ffffffff 15 800] ------- [21:255 -1:255 32 0] 
r 0.704426732 _14_ RTR  --- 13 message 32 [0 ffffffff 15 800] ------- [21:255 -1:255 32 0] 
r 0.704426752 _20_ RTR  --- 13 message 32 [0 ffffffff 15 800] ------- [21:255 -1:255 32 0] 
r 0.704426761 _25_ RTR  --- 13 message 32 [0 ffffffff 15 800] ------- [21:255 -1:255 32 0] 
r 0.704426827 _28_ RTR  --- 13 message 32 [0 ffffffff 15 800] ------- [21:255 -1:255 32 0] 
r 0.704426834 _9_ RTR  --- 13 message 32 [0 ffffffff 15 800] ------- [21:255 -1:255 32 0] 
r 0.704426959 _2_ RTR  --- 13 message 32 [0 ffffffff 15 800] ------- [21:255 -1:255 32 0] 
s 0.818871236 _23_ RTR  --- 14 message 32 [0 0 0 0] ------- [23:255 -1:255 32 0] 
r 0.820031291 _26_ RTR  --- 14 message 32 [0 ffffffff 17 800] ------- [23:255 -1:255 32 0] 
r 0.820031523 _10_ RTR  --- 14 message 32 [0 ffffffff 17 800] ------- [23:255 -1:255 32 0] 
r 0.820031620 _1_ RTR  --- 14 message 32 [0 ffffffff 17 800] ------- [23:255 -1:255 32 0] 
r 0.820031823 _27_ RTR  --- 14 message 32 [0 ffffffff 17 800] ------- [23:255 -1:255 32 0] 
r 0.820032060 _8_ RTR  --- 14 message 32 [0 ffffffff 17 800] ------- [23:255 -1:255 32 0] 
s 0.847315218 _17_ RTR  --- 15 message 32 [0 0 0 0] ------- [17:255 -1:255 32 0] 
r 0.848315401 _5_ RTR  --- 15 message 32 [0 ffffffff 11 800] ------- [17:255 -1:255 32 0] 
r 0.848315461 _0_ RTR  --- 15 message 32 [0 ffffffff 11 800] ------- [17:255 -1:255 32 0] 
r 0.848315484 _18_ RTR  --- 15 message 32 [0 ffffffff 11 800] ------- [17:255 -1:255 32 0] 
r 0.848315538 _8_ RTR  --- 15 message 32 [0 ffffffff 11 800] ------- [17:255 -1:255 32 0] 
r 0.848315547 _19_ RTR  --- 15 message 32 [0 ffffffff 11 800] ------- [17:255 -1:255 32 0] 
r 0.848315637 _27_ RTR  --- 15 message 32 [0 ffffffff 11 800] ------- [17:255 -1:255 32 0] 
r 0.848315839 _15_ RTR  --- 15 message 32 [0 ffffffff 11 800] ------- [17:255 -1:255 32 0] 
r 0.848315846 _1_ RTR  --- 15 message 32 [0 ffffffff 11 800] ------- [17:255 -1:255 32 0] 
r 0.848315858 _12_ RTR  --- 15 message 32 [0 ffffffff 11 800] ------- [17:255 -1:255 32 0] 
r 0.848315873 _6_ RTR  --- 15 message 32 [0 ffffffff 11 800] ------- [17:255 -1:255 32 0] 
r 0.848315901 _29_ RTR  --- 15 message 32 [0 ffffffff 11 800] ------- [17:255 -1:255 32 0] 
s 0.891466156 _4_ RTR  --- 16 message 32 [0 0 0 0] ------- [4:255 -1:255 32 0] 
r 0.892406225 _24_ RTR  --- 16 message 32 [0 ffffffff 4 800] ------- [4:255 -1:255 32 0] 
r 0.892406378 _20_ RTR  --- 16 message 32 [0 ffffffff 4 800] ------- [4:255 -1:255 32 0] 
r 0.892406538 _7_ RTR  --- 16 message 32 [0 ffffffff 4 800] ------- [4:255 -1:255 32 0] 
r 0.892406555 _21_ RTR  --- 16 message 32 [0 ffffffff 4 800] ------- [4:255 -1:255 32 0] 
r 0.892406562 _16_ RTR  --- 16 message 32 [0 ffffffff 4 800] ------- [4:255 -1:255 32 0] 
r 0.892406577 _25_ RTR  --- 16 message 32 [0 ffffffff 4 800] ------- [4:255 -1:255 32 0] 
r 0.892406591 _14_ RTR  --- 16 message 32 [0 ffffffff 4 800] ------- [4:255 -1:255 32 0] 
r 0.892406638 _3_ RTR  --- 16 message 32 [0 ffffffff 4 800] ------- [4:255 -1:255 32 0] 
r 0.892406642 _9_ RTR  --- 16 message 32 [0 ffffffff 4 800] ------- [4:255 -1:255 32 0] 
r 0.892406749 _22_ RTR  --- 16 message 32 [0 ffffffff 4 800] ------- [4:255 -1:255 32 0] 
r 0.892406756 _11_ RTR  --- 16 message 32 [0 ffffffff 4 800] ------- [4:255 -1:255 32 0] 
r 0.892406810 _29_ RTR  --- 16 message 32 [0 ffffffff 4 800] ------- [4:255 -1:255 32 0] 
r 0.892406846 _6_ RTR  --- 16 message 32 [0 ffffffff 4 800] ------- [4:255 -1:255 32 0] 
r 0.892406852 _15_ RTR  --- 16 message 32 [0 ffffffff 4 800] ------- [4:255 -1:255 32 0] 
r 0.892406866 _12_ RTR  --- 16 message 32 [0 ffffffff 4 800] ------- [4:255 -1:255 32 0] 
s 0.932265375 _25_ RTR  --- 17 message 32 [0 0 0 0] ------- [25:255 -1:255 32 0] 
r 0.933225438 _14_ RTR  --- 17 message 32 [0 ffffffff 19 800] ------- [25:255 -1:255 32 0] 
r 0.933225702 _3_ RTR  --- 17 message 32 [0 ffffffff 19 800] ------- [25:255 -1:255 32 0] 
r 0.933225736 _22_ RTR  --- 17 message 32 [0 ffffffff 19 800] ------- [25:255 -1:255 32 0] 
r 0.933225781 _24_ RTR  --- 17 message 32 [0 ffffffff 19 800] ------- [25:255 -1:255 32 0] 
r 0.933225797 _4_ RTR  --- 17 message 32 [0 ffffffff 19 800] ------- [25:255 -1:255 32 0] 
r 0.933225879 _20_ RTR  --- 17 message 32 [0 ffffffff 19 800] ------- [25:255 -1:255 32 0] 
r 0.933225918 _7_ RTR  --- 17 message 32 [0 ffffffff 19 800] ------- [25:255 -1:255 32 0] 
r 0.933226000 _21_ RTR  --- 17 message 32 [0 ffffffff 19 800] ------- [25:255 -1:255 32 0] 
r 0.933226018 _16_ RTR  --- 17 message 32 [0 ffffffff 19 800] ------- [25:255 -1:255 32 0] 
r 0.933226198 _29_ RTR  --- 17 message 32 [0 ffffffff 19 800] ------- [25:255 -1:255 32 0] 
M 1.00000 0 (201.65, 232.66, 0.00), (201.65, 240.23), 7.57
M 1.00000 1 (1.65, 114.93, 0.00), (1.65, 114.93), 29.45
s 1.045355908 _24_ RTR  --- 18 message 32 [0 0 0 0] ------- [24:255 -1:255 32 0] 
r 1.046675977 _4_ RTR  --- 18 message 32 [0 ffffffff 18 800] ------- [24:255 -1:255 32 0] 
r 1.046676198 _20_ RTR  --- 18 message 32 [0 ffffffff 18 800] ------- [24:255 -1:255 32 0] 
r 1.046676223 _7_ RTR  --- 18 message 32 [0 ffffffff 18 800] ------- [24:255 -1:255 32 0] 
r 1.046676247 _21_ RTR  --- 18 message 32 [0 ffffffff 18 800] ------- [24:255 -1:255 32 0] 
r 1.046676256 _16_ RTR  --- 18 message 32 [0 ffffffff 18 800] ------- [24:255 -1:255 32 0] 
r 1.046676314 _25_ RTR  --- 18 message 32 [0 ffffffff 18 800] ------- [24:255 -1:255 32 0] 
r 1.046676318 _14_ RTR  --- 18 message 32 [0 ffffffff 18 800] ------- [24:255 -1:255 32 0] 
r 1.046676332 _3_ RTR  --- 18 message 32 [0 ffffffff 18 800] ------- [24:255 -1:255 32 0] 
r 1.046676441 _9_ RTR  --- 18 message 32 [0 ffffffff 18 800] ------- [24:255 -1:255 32 0] 
r 1.046676447 _22_ RTR  --- 18 message 32 [0 ffffffff 18 800] ------- [24:255 -1:255 32 0] 
r 1.046676468 _11_ RTR  --- 18 message 32 [0 ffffffff 18 800] ------- [24:255 -1:255 32 0] 
r 1.046676630 _29_ RTR  --- 18 message 32 [0 ffffffff 18 800] ------- [24:255 -1:255 32 0] 
r 1.046676666 _6_ RTR  --- 18 message 32 [0 ffffffff 18 800] ------- [24:255 -1:255 32 0] 
r 1.046676666 _15_ RTR  --- 18 message 32 [0 ffffffff 18 800] ------- [24:255 -1:255 32 0] 
r 1.046676686 _12_ RTR  --- 18 message 32 [0 ffffffff 18 800] ------- [24:255 -1:255 32 0] 
s 1.117914998 _1_ RTR  --- 19 message 32 [0 0 0 0] ------- [1:255 -1:255 32 0] 
r 1.118995376 _26_ RTR  --- 19 message 32 [0 ffffffff 1 800] ------- [1:255 -1:255 32 0] 
r 1.118995382 _23_ RTR  --- 19 message 32 [0 ffffffff 1 800] ------- [1:255 -1:255 32 0] 
r 1.118995457 _8_ RTR  --- 19 message 32 [0 ffffffff 1 800] ------- [1:255 -1:255 32 0] 
r 1.118995481 _27_ RTR  --- 19 message 32 [0 ffffffff 1 800] ------- [1:255 -1:255 32 0] 
r 1.118995517 _10_ RTR  --- 19 message 32 [0 ffffffff 1 800] ------- [1:255 -1:255 32 0] 
r 1.118995626 _17_ RTR  --- 19 message 32 [0 ffffffff 1 800] ------- [1:255 -1:255 32 0] 
r 1.118995702 _19_ RTR  --- 19 message 32 [0 ffffffff 1 800] ------- [1:255 -1:255 32 0] 
r 1.118995724 _18_ RTR  --- 19 message 32 [0 ffffffff 1 800] ------- [1:255 -1:255 32 0] 
r 1.118995764 _5_ RTR  --- 19 message 32 [0 ffffffff 1 800] ------- [1:255 -1:255 32 0] 
r 1.118995773 _0_ RTR  --- 19 message 32 [0 ffffffff 1 800] ------- [1:255 -1:255 32 0] 
s 1.279806438 _9_ RTR  --- 20 message 32 [0 0 0 0] ------- [9:255 -1:255 32 0] 
r 1.281146754 _15_ RTR  --- 20 message 32 [0 ffffffff 9 800] ------- [9:255 -1:255 32 0] 
r 1.281146855 _20_ RTR  --- 20 message 32 [0 ffffffff 9 800] ------- [9:255 -1:255 32 0] 
r 1.281146924 _4_ RTR  --- 20 message 32 [0 ffffffff 9 800] ------- [9:255 -1:255 32 0] 
r 1.281146971 _24_ RTR  --- 20 message 32 [0 ffffffff 9 800] ------- [9:255 -1:255 32 0] 
r 1.281147026 _29_ RTR  --- 20 message 32 [0 ffffffff 9 800] ------- [9:255 -1:255 32 0] 
r 1.281147052 _6_ RTR  --- 20 message 32 [0 ffffffff 9 800] ------- [9:255 -1:255 32 0] 
r 1.281147066 _12_ RTR  --- 20 message 32 [0 ffffffff 9 800] ------- [9:255 -1:255 32 0] 
r 1.281147126 _16_ RTR  --- 20 message 32 [0 ffffffff 9 800] ------- [9:255 -1:255 32 0] 
r 1.281147130 _11_ RTR  --- 20 message 32 [0 ffffffff 9 800] ------- [9:255 -1:255 32 0] 
r 1.281147135 _21_ RTR  --- 20 message 32 [0 ffffffff 9 800] ------- [9:255 -1:255 32 0] 
r 1.281147142 _0_ RTR  --- 20 message 32 [0 ffffffff 9 800] ------- [9:255 -1:255 32 0] 
r 1.281147166 _18_ RTR  --- 20 message 32 [0 ffffffff 9 800] ------- [9:255 -1:255 32 0] 
r 1.281147177 _19_ RTR  --- 20 message 32 [0 ffffffff 9 800] ------- [9:255 -1:255 32 0] 
r 1.281147182 _7_ RTR  --- 20 message 32 [0 ffffffff 9 800] ------- [9:255 -1:255 32 0] 
r 1.281147191 _5_ RTR  --- 20 message 32 [0 ffffffff 9 800] ------- [9:255 -1:255 32 0] 
s 1.284507540 _14_ RTR  --- 21 message 32 [0 0 0 0] ------- [14:255 -1:255 32 0] 
r 1.285347602 _25_ RTR  --- 21 message 32 [0 ffffffff e 800] ------- [14:255 -1:255 32 0] 
r 1.285347809 _3_ RTR  --- 21 message 32 [0 ffffffff e 800] ------- [14:255 -1:255 32 0] 
r 1.285347839 _22_ RTR  --- 21 message 32 [0 ffffffff e 800] ------- [14:255 -1:255 32 0] 
r 1.285347949 _24_ RTR  --- 21 message 32 [0 ffffffff e 800] ------- [14:255 -1:255 32 0] 
r 1.285347975 _4_ RTR  --- 21 message 32 [0 ffffffff e 800] ------- [14:255 -1:255 32 0] 
r 1.285348048 _7_ RTR  --- 21 message 32 [0 ffffffff e 800] ------- [14:255 -1:255 32 0] 
r 1.285348081 _20_ RTR  --- 21 message 32 [0 ffffffff e 800] ------- [14:255 -1:255 32 0] 
r 1.285348135 _21_ RTR  --- 21 message 32 [0 ffffffff e 800] ------- [14:255 -1:255 32 0] 
r 1.285348154 _16_ RTR  --- 21 message 32 [0 ffffffff e 800] ------- [14:255 -1:255 32 0] 
s 1.388917713 _26_ RTR  --- 22 message 32 [0 0 0 0] ------- [26:255 -1:255 32 0] 
r 1.389757767 _23_ RTR  --- 22 message 32 [0 ffffffff 1a 800] ------- [26:255 -1:255 32 0] 
r 1.389758054 _10_ RTR  --- 22 message 32 [0 ffffffff 1a 800] ------- [26:255 -1:255 32 0] 
r 1.389758091 _1_ RTR  --- 22 message 32 [0 ffffffff 1a 800] ------- [26:255 -1:255 32 0] 
r 1.389758339 _27_ RTR  --- 22 message 32 [0 ffffffff 1a 800] ------- [26:255 -1:255 32 0] 
r 1.389758541 _8_ RTR  --- 22 message 32 [0 ffffffff 1a 800] ------- [26:255 -1:255 32 0] 
s 1.603158648 _5_ RTR  --- 23 message 32 [0 0 0 0] ------- [5:255 -1:255 32 0] 
r 1.604458718 _0_ RTR  --- 23 message 32 [0 ffffffff 5 800] ------- [5:255 -1:255 32 0] 
r 1.604458798 _18_ RTR  --- 23 message 32 [0 ffffffff 5 800] ------- [5:255 -1:255 32 0] 
r 1.604458831 _17_ RTR  --- 23 message 32 [0 ffffffff 5 800] ------- [5:255 -1:255 32 0] 
r 1.604458884 _19_ RTR  --- 23 message 32 [0 ffffffff 5 800] ------- [5:255 -1:255 32 0] 
r 1.604459086 _15_ RTR  --- 23 message 32 [0 ffffffff 5 800] ------- [5:255 -1:255 32 0] 
r 1.604459086 _27_ RTR  --- 23 message 32 [0 ffffffff 5 800] ------- [5:255 -1:255 32 0] 
r 1.604459151 _8_ RTR  --- 23 message 32 [0 ffffffff 5 800] ------- [5:255 -1:255 32 0] 
r 1.604459166 _12_ RTR  --- 23 message 32 [0 ffffffff 5 800] ------- [5:255 -1:255 32 0] 
r 1.604459178 _6_ RTR  --- 23 message 32 [0 ffffffff 5 800] ------- [5:255 -1:255 32 0] 
r 1.604459200 _29_ RTR  --- 23 message 32 [0 ffffffff 5 800] ------- [5:255 -1:255 32 0] 
r 1.604459401 _9_ RTR  --- 23 message 32 [0 ffffffff 5 800] ------- [5:255 -1:255 32 0] 
r 1.604459414 _1_ RTR  --- 23 message 32 [0 ffffffff 5 800] ------- [5:255 -1:255 32 0] 
s 1.615642244 _20_ RTR  --- 24 message 32 [0 0 0 0] ------- [20:255 -1:255 32 0] 
r 1.616642466 _4_ RTR  --- 24 message 32 [0 ffffffff 14 800] ------- [20:255 -1:255 32 0] 
r 1.616642534 _24_ RTR  --- 24 message 32 [0 ffffffff 14 800] ------- [20:255 -1:255 32 0] 
r 1.616642662 _9_ RTR  --- 24 message 32 [0 ffffffff 14 800] ------- [20:255 -1:255 32 0] 
r 1.616642677 _29_ RTR  --- 24 message 32 [0 ffffffff 14 800] ------- [20:255 -1:255 32 0] 
r 1.616642713 _6_ RTR  --- 24 message 32 [0 ffffffff 14 800] ------- [20:255 -1:255 32 0] 
r 1.616642733 _12_ RTR  --- 24 message 32 [0 ffffffff 14 800] ------- [20:255 -1:255 32 0] 
r 1.616642748 _25_ RTR  --- 24 message 32 [0 ffffffff 14 800] ------- [20:255 -1:255 32 0] 
r 1.616642776 _15_ RTR  --- 24 message 32 [0 ffffffff 14 800] ------- [20:255 -1:255 32 0] 
r 1.616642786 _14_ RTR  --- 24 message 32 [0 ffffffff 14 800] ------- [20:255 -1:255 32 0] 
r 1.616642848 _7_ RTR  --- 24 message 32 [0 ffffffff 14 800] ------- [20:255 -1:255 32 0] 
r 1.616642859 _21_ RTR  --- 24 message 32 [0 ffffffff 14 800] ------- [20:255 -1:255 32 0] 
r 1.616642863 _16_ RTR  --- 24 message 32 [0 ffffffff 14 800] ------- [20:255 -1:255 32 0] 
r 1.616642912 _3_ RTR  --- 24 message 32 [0 ffffffff 14 800] ------- [20:255 -1:255 32 0] 
r 1.616642998 _19_ RTR  --- 24 message 32 [0 ffffffff 14 800] ------- [20:255 -1:255 32 0] 
r 1.616643012 _22_ RTR  --- 24 message 32 [0 ffffffff 14 800] ------- [20:255 -1:255 32 0] 
r 1.616643023 _11_ RTR  --- 24 message 32 [0 ffffffff 14 800] ------- [20:255 -1:255 32 0] 
r 1.616643034 _18_ RTR  --- 24 message 32 [0 ffffffff 14 800] ------- [20:255 -1:255 32 0] 
r 1.616643063 _0_ RTR  --- 24 message 32 [0 ffffffff 14 800] ------- [20:255 -1:255 32 0] 
s 1.641665551 _7_ RTR  --- 25 message 32 [0 0 0 0] ------- [7:255 -1:255 32 0] 
r 1.642585649 _21_ RTR  --- 25 message 32 [0 ffffffff 7 800] ------- [7:255 -1:255 32 0] 
r 1.642585670 _16_ RTR  --- 25 message 32 [0 ffffffff 7 800] ------- [7:255 -1:255 32 0] 
r 1.642585866 _24_ RTR  --- 25 message 32 [0 ffffffff 7 800] ------- [7:255 -1:255 32 0] 
r 1.642585881 _3_ RTR  --- 25 message 32 [0 ffffffff 7 800] ------- [7:255 -1:255 32 0] 
r 1.642585933 _4_ RTR  --- 25 message 32 [0 ffffffff 7 800] ------- [7:255 -1:255 32 0] 
r 1.642585940 _11_ RTR  --- 25 message 32 [0 ffffffff 7 800] ------- [7:255 -1:255 32 0] 
r 1.642585991 _22_ RTR  --- 25 message 32 [0 ffffffff 7 800] ------- [7:255 -1:255 32 0] 
r 1.642586059 _14_ RTR  --- 25 message 32 [0 ffffffff 7 800] ------- [7:255 -1:255 32 0] 
r 1.642586093 _25_ RTR  --- 25 message 32 [0 ffffffff 7 800] ------- [7:255 -1:255 32 0] 
r 1.642586154 _20_ RTR  --- 25 message 32 [0 ffffffff 7 800] ------- [7:255 -1:255 32 0] 
r 1.642586287 _28_ RTR  --- 25 message 32 [0 ffffffff 7 800] ------- [7:255 -1:255 32 0] 
r 1.642586295 _9_ RTR  --- 25 message 32 [0 ffffffff 7 800] ------- [7:255 -1:255 32 0] 
r 1.642586312 _2_ RTR  --- 25 message 32 [0 ffffffff 7 800] ------- [7:255 -1:255 32 0] 
r 1.642586331 _13_ RTR  --- 25 message 32 [0 ffffffff 7 800] ------- [7:255 -1:255 32 0] 
s 1.674915381 _11_ RTR  --- 26 message 32 [0 0 0 0] ------- [11:255 -1:255 32 0] 
r 1.676315653 _16_ RTR  --- 26 message 32 [0 ffffffff b 800] ------- [11:255 -1:255 32 0] 
r 1.676315673 _21_ RTR  --- 26 message 32 [0 ffffffff b 800] ------- [11:255 -1:255 32 0] 