M 0.00000 0 (225.51, 126.65, 0.00), (225.51, 126.65), 11.42
s 0.003091411 _0_ RTR  --- 0 message 32 [0 0 0 0] ------- [0:255 -1:255 32 0] 
r 0.004211454 _9_ RTR  --- 0 message 32 [0 ffffffff 0 800] ------- [0:255 -1:255 32 0] 
r 0.004211596 _28_ RTR  --- 0 message 32 [0 ffffffff 0 800] ------- [0:255 -1:255 32 0] 
r 0.004211606 _17_ RTR  --- 0 message 32 [0 ffffffff 0 800] ------- [0:255 -1:255 32 0] 
r 0.004211733 _24_ RTR  --- 0 message 32 [0 ffffffff 0 800] ------- [0:255 -1:255 32 0] 
r 0.004211799 _1_ RTR  --- 0 message 32 [0 ffffffff 0 800] ------- [0:255 -1:255 32 0] 
r 0.004211800 _2_ RTR  --- 0 message 32 [0 ffffffff 0 800] ------- [0:255 -1:255 32 0] 
r 0.004211817 _14_ RTR  --- 0 message 32 [0 ffffffff 0 800] ------- [0:255 -1:255 32 0] 
r 0.004211901 _16_ RTR  --- 0 message 32 [0 ffffffff 0 800] ------- [0:255 -1:255 32 0] 
r 0.004211992 _22_ RTR  --- 0 message 32 [0 ffffffff 0 800] ------- [0:255 -1:255 32 0] 
r 0.004212013 _29_ RTR  --- 0 message 32 [0 ffffffff 0 800] ------- [0:255 -1:255 32 0] 
r 0.004212032 _10_ RTR  --- 0 message 32 [0 ffffffff 0 800] ------- [0:255 -1:255 32 0] 
r 0.004212038 _5_ RTR  --- 0 message 32 [0 ffffffff 0 800] ------- [0:255 -1:255 32 0] 
r 0.004212041 _19_ RTR  --- 0 message 32 [0 ffffffff 0 800] ------- [0:255 -1:255 32 0] 
r 0.004212043 _12_ RTR  --- 0 message 32 [0 ffffffff 0 800] ------- [0:255 -1:255 32 0] 
r 0.004212061 _25_ RTR  --- 0 message 32 [0 ffffffff 0 800] ------- [0:255 -1:255 32 0] 
r 0.004212123 _3_ RTR  --- 0 message 32 [0 ffffffff 0 800] ------- [0:255 -1:255 32 0] 
r 0.004212196 _15_ RTR  --- 0 message 32 [0 ffffffff 0 800] ------- [0:255 -1:255 32 0] 
r 0.004212202 _18_ RTR  --- 0 message 32 [0 ffffffff 0 800] ------- [0:255 -1:255 32 0] 
r 0.004212223 _23_ RTR  --- 0 message 32 [0 ffffffff 0 800] ------- [0:255 -1:255 32 0] 
s 0.037458776 _2_ RTR  --- 1 message 32 [0 0 0 0] ------- [2:255 -1:255 32 0] 
r 0.038558777 _1_ RTR  --- 1 message 32 [0 ffffffff 2 800] ------- [2:255 -1:255 32 0] 
r 0.038558880 _14_ RTR  --- 1 message 32 [0 ffffffff 2 800] ------- [2:255 -1:255 32 0] 
r 0.038559157 _9_ RTR  --- 1 message 32 [0 ffffffff 2 800] ------- [2:255 -1:255 32 0] 
r 0.038559163 _12_ RTR  --- 1 message 32 [0 ffffffff 2 800] ------- [2:255 -1:255 32 0] 
r 0.038559165 _0_ RTR  --- 1 message 32 [0 ffffffff 2 800] ------- [2:255 -1:255 32 0] 
r 0.038559169 _19_ RTR  --- 1 message 32 [0 ffffffff 2 800] ------- [2:255 -1:255 32 0] 
r 0.038559177 _28_ RTR  --- 1 message 32 [0 ffffffff 2 800] ------- [2:255 -1:255 32 0] 
r 0.038559220 _24_ RTR  --- 1 message 32 [0 ffffffff 2 800] ------- [2:255 -1:255 32 0] 
r 0.038559327 _17_ RTR  --- 1 message 32 [0 ffffffff 2 800] ------- [2:255 -1:255 32 0] 
r 0.038559547 _18_ RTR  --- 1 message 32 [0 ffffffff 2 800] ------- [2:255 -1:255 32 0] 
r 0.038559585 _22_ RTR  --- 1 message 32 [0 ffffffff 2 800] ------- [2:255 -1:255 32 0] 
r 0.038559592 _5_ RTR  --- 1 message 32 [0 ffffffff 2 800] ------- [2:255 -1:255 32 0] 
s 0.087462768 _13_ RTR  --- 2 message 32 [0 0 0 0] ------- [13:255 -1:255 32 0] 
r 0.088503185 _20_ RTR  --- 2 message 32 [0 ffffffff d 800] ------- [13:255 -1:255 32 0] 
r 0.088503196 _6_ RTR  --- 2 message 32 [0 ffffffff d 800] ------- [13:255 -1:255 32 0] 
r 0.088503223 _8_ RTR  --- 2 message 32 [0 ffffffff d 800] ------- [13:255 -1:255 32 0] 
r 0.088503439 _4_ RTR  --- 2 message 32 [0 ffffffff d 800] ------- [13:255 -1:255 32 0] 
r 0.088503497 _26_ RTR  --- 2 message 32 [0 ffffffff d 800] ------- [13:255 -1:255 32 0] 
r 0.088503509 _27_ RTR  --- 2 message 32 [0 ffffffff d 800] ------- [13:255 -1:255 32 0] 
r 0.088503592 _21_ RTR  --- 2 message 32 [0 ffffffff d 800] ------- [13:255 -1:255 32 0] 
s 0.177365656 _3_ RTR  --- 3 message 32 [0 0 0 0] ------- [3:255 -1:255 32 0] 
r 0.178305799 _29_ RTR  --- 3 message 32 [0 ffffffff 3 800] ------- [3:255 -1:255 32 0] 
r 0.178305898 _15_ RTR  --- 3 message 32 [0 ffffffff 3 800] ------- [3:255 -1:255 32 0] 
r 0.178306144 _24_ RTR  --- 3 message 32 [0 ffffffff 3 800] ------- [3:255 -1:255 32 0] 
r 0.178306201 _17_ RTR  --- 3 message 32 [0 ffffffff 3 800] ------- [3:255 -1:255 32 0] 
r 0.178306220 _28_ RTR  --- 3 message 32 [0 ffffffff 3 800] ------- [3:255 -1:255 32 0] 
r 0.178306333 _9_ RTR  --- 3 message 32 [0 ffffffff 3 800] ------- [3:255 -1:255 32 0] 
r 0.178306368 _0_ RTR  --- 3 message 32 [0 ffffffff 3 800] ------- [3:255 -1:255 32 0] 
r 0.178306484 _19_ RTR  --- 3 message 32 [0 ffffffff 3 800] ------- [3:255 -1:255 32 0] 
s 0.191634337 _19_ RTR  --- 4 message 32 [0 0 0 0] ------- [19:255 -1:255 32 0] 
r 0.192634350 _12_ RTR  --- 4 message 32 [0 ffffffff 13 800] ------- [19:255 -1:255 32 0] 
r 0.192634730 _2_ RTR  --- 4 message 32 [0 ffffffff 13 800] ------- [19:255 -1:255 32 0] 
r 0.192634730 _1_ RTR  --- 4 message 32 [0 ffffffff 13 800] ------- [19:255 -1:255 32 0] 
r 0.192634773 _24_ RTR  --- 4 message 32 [0 ffffffff 13 800] ------- [19:255 -1:255 32 0] 
r 0.192634829 _14_ RTR  --- 4 message 32 [0 ffffffff 13 800] ------- [19:255 -1:255 32 0] 
r 0.192634849 _28_ RTR  --- 4 message 32 [0 ffffffff 13 800] ------- [19:255 -1:255 32 0] 
r 0.192634934 _9_ RTR  --- 4 message 32 [0 ffffffff 13 800] ------- [19:255 -1:255 32 0] 
r 0.192634967 _0_ RTR  --- 4 message 32 [0 ffffffff 13 800] ------- [19:255 -1:255 32 0] 
r 0.192635036 _17_ RTR  --- 4 message 32 [0 ffffffff 13 800] ------- [19:255 -1:255 32 0] 
r 0.192635037 _15_ RTR  --- 4 message 32 [0 ffffffff 13 800] ------- [19:255 -1:255 32 0] 
r 0.192635160 _29_ RTR  --- 4 message 32 [0 ffffffff 13 800] ------- [19:255 -1:255 32 0] 
r 0.192635164 _3_ RTR  --- 4 message 32 [0 ffffffff 13 800] ------- [19:255 -1:255 32 0] 
s 0.234603229 _15_ RTR  --- 5 message 32 [0 0 0 0] ------- [15:255 -1:255 32 0] 
r 0.235643471 _3_ RTR  --- 5 message 32 [0 ffffffff f 800] ------- [15:255 -1:255 32 0] 
r 0.235643586 _29_ RTR  --- 5 message 32 [0 ffffffff f 800] ------- [15:255 -1:255 32 0] 
r 0.235643718 _24_ RTR  --- 5 message 32 [0 ffffffff f 800] ------- [15:255 -1:255 32 0] 
r 0.235643837 _28_ RTR  --- 5 message 32 [0 ffffffff f 800] ------- [15:255 -1:255 32 0] 
r 0.235643889 _17_ RTR  --- 5 message 32 [0 ffffffff f 800] ------- [15:255 -1:255 32 0] 
r 0.235643930 _19_ RTR  --- 5 message 32 [0 ffffffff f 800] ------- [15:255 -1:255 32 0] 
r 0.235643943 _12_ RTR  --- 5 message 32 [0 ffffffff f 800] ------- [15:255 -1:255 32 0] 
r 0.235643973 _9_ RTR  --- 5 message 32 [0 ffffffff f 800] ------- [15:255 -1:255 32 0] 
r 0.235644014 _0_ RTR  --- 5 message 32 [0 ffffffff f 800] ------- [15:255 -1:255 32 0] 
s 0.333839210 _12_ RTR  --- 6 message 32 [0 0 0 0] ------- [12:255 -1:255 32 0] 
r 0.334739223 _19_ RTR  --- 6 message 32 [0 ffffffff c 800] ------- [12:255 -1:255 32 0] 
r 0.334739597 _2_ RTR  --- 6 message 32 [0 ffffffff c 800] ------- [12:255 -1:255 32 0] 
r 0.334739597 _1_ RTR  --- 6 message 32 [0 ffffffff c 800] ------- [12:255 -1:255 32 0] 
r 0.334739654 _24_ RTR  --- 6 message 32 [0 ffffffff c 800] ------- [12:255 -1:255 32 0] 
r 0.334739695 _14_ RTR  --- 6 message 32 [0 ffffffff c 800] ------- [12:255 -1:255 32 0] 
r 0.334739727 _28_ RTR  --- 6 message 32 [0 ffffffff c 800] ------- [12:255 -1:255 32 0] 
r 0.334739810 _9_ RTR  --- 6 message 32 [0 ffffffff c 800] ------- [12:255 -1:255 32 0] 
r 0.334739842 _0_ RTR  --- 6 message 32 [0 ffffffff c 800] ------- [12:255 -1:255 32 0] 
r 0.334739914 _17_ RTR  --- 6 message 32 [0 ffffffff c 800] ------- [12:255 -1:255 32 0] 
r 0.334739923 _15_ RTR  --- 6 message 32 [0 ffffffff c 800] ------- [12:255 -1:255 32 0] 
s 0.351472650 _18_ RTR  --- 7 message 32 [0 0 0 0] ------- [18:255 -1:255 32 0] 
r 0.352593068 _25_ RTR  --- 7 message 32 [0 ffffffff 12 800] ------- [18:255 -1:255 32 0] 
r 0.352593070 _5_ RTR  --- 7 message 32 [0 ffffffff 12 800] ------- [18:255 -1:255 32 0] 
r 0.352593147 _22_ RTR  --- 7 message 32 [0 ffffffff 12 800] ------- [18:255 -1:255 32 0] 
r 0.352593173 _11_ RTR  --- 7 message 32 [0 ffffffff 12 800] ------- [18:255 -1:255 32 0] 
r 0.352593246 _26_ RTR  --- 7 message 32 [0 ffffffff 12 800] ------- [18:255 -1:255 32 0] 
r 0.352593258 _4_ RTR  --- 7 message 32 [0 ffffffff 12 800] ------- [18:255 -1:255 32 0] 
r 0.352593296 _10_ RTR  --- 7 message 32 [0 ffffffff 12 800] ------- [18:255 -1:255 32 0] 
r 0.352593320 _14_ RTR  --- 7 message 32 [0 ffffffff 12 800] ------- [18:255 -1:255 32 0] 
r 0.352593398 _8_ RTR  --- 7 message 32 [0 ffffffff 12 800] ------- [18:255 -1:255 32 0] 
r 0.352593421 _2_ RTR  --- 7 message 32 [0 ffffffff 12 800] ------- [18:255 -1:255 32 0] 
r 0.352593421 _1_ RTR  --- 7 message 32 [0 ffffffff 12 800] ------- [18:255 -1:255 32 0] 
r 0.352593442 _0_ RTR  --- 7 message 32 [0 ffffffff 12 800] ------- [18:255 -1:255 32 0] 
r 0.352593473 _23_ RTR  --- 7 message 32 [0 ffffffff 12 800] ------- [18:255 -1:255 32 0] 
r 0.352593474 _21_ RTR  --- 7 message 32 [0 ffffffff 12 800] ------- [18:255 -1:255 32 0] 
r 0.352593480 _9_ RTR  --- 7 message 32 [0 ffffffff 12 800] ------- [18:255 -1:255 32 0] 
s 0.436386259 _29_ RTR  --- 8 message 32 [0 0 0 0] ------- [29:255 -1:255 32 0] 
r 0.437446402 _3_ RTR  --- 8 message 32 [0 ffffffff 1d 800] ------- [29:255 -1:255 32 0] 
r 0.437446616 _15_ RTR  --- 8 message 32 [0 ffffffff 1d 800] ------- [29:255 -1:255 32 0] 
r 0.437446681 _17_ RTR  --- 8 message 32 [0 ffffffff 1d 800] ------- [29:255 -1:255 32 0] 
r 0.437446691 _24_ RTR  --- 8 message 32 [0 ffffffff 1d 800] ------- [29:255 -1:255 32 0] 
r 0.437446735 _28_ RTR  --- 8 message 32 [0 ffffffff 1d 800] ------- [29:255 -1:255 32 0] 
r 0.437446830 _9_ RTR  --- 8 message 32 [0 ffffffff 1d 800] ------- [29:255 -1:255 32 0] 
r 0.437446861 _0_ RTR  --- 8 message 32 [0 ffffffff 1d 800] ------- [29:255 -1:255 32 0] 
r 0.437446953 _16_ RTR  --- 8 message 32 [0 ffffffff 1d 800] ------- [29:255 -1:255 32 0] 
r 0.437447083 _19_ RTR  --- 8 message 32 [0 ffffffff 1d 800] ------- [29:255 -1:255 32 0] 
s 0.470117073 _8_ RTR  --- 9 message 32 [0 0 0 0] ------- [8:255 -1:255 32 0] 
r 0.471397336 _4_ RTR  --- 9 message 32 [0 ffffffff 8 800] ------- [8:255 -1:255 32 0] 
r 0.471397405 _20_ RTR  --- 9 message 32 [0 ffffffff 8 800] ------- [8:255 -1:255 32 0] 
r 0.471397407 _26_ RTR  --- 9 message 32 [0 ffffffff 8 800] ------- [8:255 -1:255 32 0] 
r 0.471397528 _13_ RTR  --- 9 message 32 [0 ffffffff 8 800] ------- [8:255 -1:255 32 0] 
r 0.471397577 _11_ RTR  --- 9 message 32 [0 ffffffff 8 800] ------- [8:255 -1:255 32 0] 
r 0.471397670 _25_ RTR  --- 9 message 32 [0 ffffffff 8 800] ------- [8:255 -1:255 32 0] 
r 0.471397681 _21_ RTR  --- 9 message 32 [0 ffffffff 8 800] ------- [8:255 -1:255 32 0] 
r 0.471397693 _5_ RTR  --- 9 message 32 [0 ffffffff 8 800] ------- [8:255 -1:255 32 0] 
r 0.471397711 _23_ RTR  --- 9 message 32 [0 ffffffff 8 800] ------- [8:255 -1:255 32 0] 
r 0.471397740 _22_ RTR  --- 9 message 32 [0 ffffffff 8 800] ------- [8:255 -1:255 32 0] 
r 0.471397746 _6_ RTR  --- 9 message 32 [0 ffffffff 8 800] ------- [8:255 -1:255 32 0] 
r 0.471397755 _10_ RTR  --- 9 message 32 [0 ffffffff 8 800] ------- [8:255 -1:255 32 0] 
r 0.471397813 _27_ RTR  --- 9 message 32 [0 ffffffff 8 800] ------- [8:255 -1:255 32 0] 
r 0.471397820 _18_ RTR  --- 9 message 32 [0 ffffffff 8 800] ------- [8:255 -1:255 32 0] 
r 0.471397888 _7_ RTR  --- 9 message 32 [0 ffffffff 8 800] ------- [8:255 -1:255 32 0] 
s 0.521504883 _22_ RTR  --- 10 message 32 [0 0 0 0] ------- [22:255 -1:255 32 0] 
r 0.522404969 _5_ RTR  --- 10 message 32 [0 ffffffff 16 800] ------- [22:255 -1:255 32 0] 
r 0.522404985 _25_ RTR  --- 10 message 32 [0 ffffffff 16 800] ------- [22:255 -1:255 32 0] 
r 0.522405035 _10_ RTR  --- 10 message 32 [0 ffffffff 16 800] ------- [22:255 -1:255 32 0] 
r 0.522405240 _23_ RTR  --- 10 message 32 [0 ffffffff 16 800] ------- [22:255 -1:255 32 0] 
r 0.522405254 _21_ RTR  --- 10 message 32 [0 ffffffff 16 800] ------- [22:255 -1:255 32 0] 
r 0.522405345 _16_ RTR  --- 10 message 32 [0 ffffffff 16 800] ------- [22:255 -1:255 32 0] 
r 0.522405380 _18_ RTR  --- 10 message 32 [0 ffffffff 16 800] ------- [22:255 -1:255 32 0] 
r 0.522405465 _0_ RTR  --- 10 message 32 [0 ffffffff 16 800] ------- [22:255 -1:255 32 0] 
r 0.522405508 _9_ RTR  --- 10 message 32 [0 ffffffff 16 800] ------- [22:255 -1:255 32 0] 
r 0.522405550 _8_ RTR  --- 10 message 32 [0 ffffffff 16 800] ------- [22:255 -1:255 32 0] 
r 0.522405556 _17_ RTR  --- 10 message 32 [0 ffffffff 16 800] ------- [22:255 -1:255 32 0] 
r 0.522405598 _4_ RTR  --- 10 message 32 [0 ffffffff 16 800] ------- [22:255 -1:255 32 0] 
r 0.522405630 _14_ RTR  --- 10 message 32 [0 ffffffff 16 800] ------- [22:255 -1:255 32 0] 
r 0.522405636 _26_ RTR  --- 10 message 32 [0 ffffffff 16 800] ------- [22:255 -1:255 32 0] 
r 0.522405648 _28_ RTR  --- 10 message 32 [0 ffffffff 16 800] ------- [22:255 -1:255 32 0] 
r 0.522405683 _11_ RTR  --- 10 message 32 [0 ffffffff 16 800] ------- [22:255 -1:255 32 0] 
r 0.522405692 _1_ RTR  --- 10 message 32 [0 ffffffff 16 800] ------- [22:255 -1:255 32 0] 
r 0.522405693 _2_ RTR  --- 10 message 32 [0 ffffffff 16 800] ------- [22:255 -1:255 32 0] 
s 0.626302117 _10_ RTR  --- 11 message 32 [0 0 0 0] ------- [10:255 -1:255 32 0] 
r 0.627242269 _22_ RTR  --- 11 message 32 [0 ffffffff a 800] ------- [10:255 -1:255 32 0] 
r 0.627242338 _23_ RTR  --- 11 message 32 [0 ffffffff a 800] ------- [10:255 -1:255 32 0] 
r 0.627242344 _5_ RTR  --- 11 message 32 [0 ffffffff a 800] ------- [10:255 -1:255 32 0] 
r 0.627242350 _25_ RTR  --- 11 message 32 [0 ffffffff a 800] ------- [10:255 -1:255 32 0] 
r 0.627242359 _21_ RTR  --- 11 message 32 [0 ffffffff a 800] ------- [10:255 -1:255 32 0] 
r 0.627242484 _16_ RTR  --- 11 message 32 [0 ffffffff a 800] ------- [10:255 -1:255 32 0] 
r 0.627242738 _0_ RTR  --- 11 message 32 [0 ffffffff a 800] ------- [10:255 -1:255 32 0] 
r 0.627242763 _18_ RTR  --- 11 message 32 [0 ffffffff a 800] ------- [10:255 -1:255 32 0] 
r 0.627242779 _9_ RTR  --- 11 message 32 [0 ffffffff a 800] ------- [10:255 -1:255 32 0] 
r 0.627242786 _17_ RTR  --- 11 message 32 [0 ffffffff a 800] ------- [10:255 -1:255 32 0] 
r 0.627242800 _8_ RTR  --- 11 message 32 [0 ffffffff a 800] ------- [10:255 -1:255 32 0] 
r 0.627242899 _4_ RTR  --- 11 message 32 [0 ffffffff a 800] ------- [10:255 -1:255 32 0] 
r 0.627242910 _28_ RTR  --- 11 message 32 [0 ffffffff a 800] ------- [10:255 -1:255 32 0] 
r 0.627242947 _26_ RTR  --- 11 message 32 [0 ffffffff a 800] ------- [10:255 -1:255 32 0] 
s 0.633203961 _6_ RTR  --- 12 message 32 [0 0 0 0] ------- [6:255 -1:255 32 0] 
r 0.634604349 _20_ RTR  --- 12 message 32 [0 ffffffff 6 800] ------- [6:255 -1:255 32 0] 
r 0.634604372 _27_ RTR  --- 12 message 32 [0 ffffffff 6 800] ------- [6:255 -1:255 32 0] 
r 0.634604389 _13_ RTR  --- 12 message 32 [0 ffffffff 6 800] ------- [6:255 -1:255 32 0] 
r 0.634604554 _7_ RTR  --- 12 message 32 [0 ffffffff 6 800] ------- [6:255 -1:255 32 0] 
r 0.634604634 _8_ RTR  --- 12 message 32 [0 ffffffff 6 800] ------- [6:255 -1:255 32 0] 
r 0.634604716 _4_ RTR  --- 12 message 32 [0 ffffffff 6 800] ------- [6:255 -1:255 32 0] 
r 0.634604742 _26_ RTR  --- 12 message 32 [0 ffffffff 6 800] ------- [6:255 -1:255 32 0] 
s 0.703066137 _21_ RTR  --- 13 message 32 [0 0 0 0] ------- [21:255 -1:255 32 0] 
r 0.704426172 _23_ RTR  --- 13 message 32 [0 ffffffff 15 800] ------- [21:255 -1:255 32 0] 
r 0.704426379 _10_ RTR  --- 13 message 32 [0 ffffffff 15 800] ------- [21:255 -1:255 32 0] 
r 0.704426508 _22_ RTR  --- 13 message 32 [0 ffffffff 15 800] ------- [21:255 -1:255 32 0] 
r 0.704426551 _25_ RTR  --- 13 message 32 [0 ffffffff 15 800] ------- [21:255 -1:255 32 0] 
r 0.704426556 _5_ RTR  --- 13 message 32 [0 ffffffff 15 800] ------- [21:255 -1:255 32 0] 
r 0.704426610 _16_ RTR  --- 13 message 32 [0 ffffffff 15 800] ------- [21:255 -1:255 32 0] 
r 0.704426746 _8_ RTR  --- 13 message 32 [0 ffffffff 15 800] ------- [21:255 -1:255 32 0] 
r 0.704426920 _4_ RTR  --- 13 message 32 [0 ffffffff 15 800] ------- [21:255 -1:255 32 0] 
r 0.704426961 _13_ RTR  --- 13 message 32 [0 ffffffff 15 800] ------- [21:255 -1:255 32 0] 
r 0.704426961 _18_ RTR  --- 13 message 32 [0 ffffffff 15 800] ------- [21:255 -1:255 32 0] 
s 0.818871236 _23_ RTR  --- 14 message 32 [0 0 0 0] ------- [23:255 -1:255 32 0] 
r 0.820031271 _21_ RTR  --- 14 message 32 [0 ffffffff 17 800] ------- [23:255 -1:255 32 0] 
r 0.820031457 _10_ RTR  --- 14 message 32 [0 ffffffff 17 800] ------- [23:255 -1:255 32 0] 
r 0.820031594 _22_ RTR  --- 14 message 32 [0 ffffffff 17 800] ------- [23:255 -1:255 32 0] 
r 0.820031645 _25_ RTR  --- 14 message 32 [0 ffffffff 17 800] ------- [23:255 -1:255 32 0] 
r 0.820031648 _5_ RTR  --- 14 message 32 [0 ffffffff 17 800] ------- [23:255 -1:255 32 0] 
r 0.820031674 _16_ RTR  --- 14 message 32 [0 ffffffff 17 800] ------- [23:255 -1:255 32 0] 
r 0.820031875 _8_ RTR  --- 14 message 32 [0 ffffffff 17 800] ------- [23:255 -1:255 32 0] 
r 0.820032043 _4_ RTR  --- 14 message 32 [0 ffffffff 17 800] ------- [23:255 -1:255 32 0] 
r 0.820032048 _0_ RTR  --- 14 message 32 [0 ffffffff 17 800] ------- [23:255 -1:255 32 0] 
r 0.820032059 _18_ RTR  --- 14 message 32 [0 ffffffff 17 800] ------- [23:255 -1:255 32 0] 
r 0.820032061 _17_ RTR  --- 14 message 32 [0 ffffffff 17 800] ------- [23:255 -1:255 32 0] 
s 0.847315218 _17_ RTR  --- 15 message 32 [0 0 0 0] ------- [17:255 -1:255 32 0] 
r 0.848315397 _9_ RTR  --- 15 message 32 [0 ffffffff 11 800] ------- [17:255 -1:255 32 0] 
r 0.848315406 _28_ RTR  --- 15 message 32 [0 ffffffff 11 800] ------- [17:255 -1:255 32 0] 
r 0.848315413 _0_ RTR  --- 15 message 32 [0 ffffffff 11 800] ------- [17:255 -1:255 32 0] 
r 0.848315507 _24_ RTR  --- 15 message 32 [0 ffffffff 11 800] ------- [17:255 -1:255 32 0] 
r 0.848315640 _29_ RTR  --- 15 message 32 [0 ffffffff 11 800] ------- [17:255 -1:255 32 0] 
r 0.848315644 _16_ RTR  --- 15 message 32 [0 ffffffff 11 800] ------- [17:255 -1:255 32 0] 
r 0.848315763 _3_ RTR  --- 15 message 32 [0 ffffffff 11 800] ------- [17:255 -1:255 32 0] 
r 0.848315769 _1_ RTR  --- 15 message 32 [0 ffffffff 11 800] ------- [17:255 -1:255 32 0] 
r 0.848315769 _2_ RTR  --- 15 message 32 [0 ffffffff 11 800] ------- [17:255 -1:255 32 0] 
r 0.848315805 _14_ RTR  --- 15 message 32 [0 ffffffff 11 800] ------- [17:255 -1:255 32 0] 
r 0.848315877 _15_ RTR  --- 15 message 32 [0 ffffffff 11 800] ------- [17:255 -1:255 32 0] 
r 0.848315887 _10_ RTR  --- 15 message 32 [0 ffffffff 11 800] ------- [17:255 -1:255 32 0] 
r 0.848315891 _22_ RTR  --- 15 message 32 [0 ffffffff 11 800] ------- [17:255 -1:255 32 0] 
r 0.848315917 _19_ RTR  --- 15 message 32 [0 ffffffff 11 800] ------- [17:255 -1:255 32 0] 
r 0.848315922 _12_ RTR  --- 15 message 32 [0 ffffffff 11 800] ------- [17:255 -1:255 32 0] 
r 0.848315953 _5_ RTR  --- 15 message 32 [0 ffffffff 11 800] ------- [17:255 -1:255 32 0] 
r 0.848315977 _25_ RTR  --- 15 message 32 [0 ffffffff 11 800] ------- [17:255 -1:255 32 0] 
r 0.848316042 _23_ RTR  --- 15 message 32 [0 ffffffff 11 800] ------- [17:255 -1:255 32 0] 
s 0.891466156 _4_ RTR  --- 16 message 32 [0 0 0 0] ------- [4:255 -1:255 32 0] 
r 0.892406227 _26_ RTR  --- 16 message 32 [0 ffffffff 4 800] ------- [4:255 -1:255 32 0] 
r 0.892406399 _11_ RTR  --- 16 message 32 [0 ffffffff 4 800] ------- [4:255 -1:255 32 0] 
r 0.892406419 _8_ RTR  --- 16 message 32 [0 ffffffff 4 800] ------- [4:255 -1:255 32 0] 
r 0.892406523 _20_ RTR  --- 16 message 32 [0 ffffffff 4 800] ------- [4:255 -1:255 32 0] 
r 0.892406764 _18_ RTR  --- 16 message 32 [0 ffffffff 4 800] ------- [4:255 -1:255 32 0] 
r 0.892406777 _25_ RTR  --- 16 message 32 [0 ffffffff 4 800] ------- [4:255 -1:255 32 0] 
r 0.892406800 _5_ RTR  --- 16 message 32 [0 ffffffff 4 800] ------- [4:255 -1:255 32 0] 
r 0.892406825 _27_ RTR  --- 16 message 32 [0 ffffffff 4 800] ------- [4:255 -1:255 32 0] 
r 0.892406828 _13_ RTR  --- 16 message 32 [0 ffffffff 4 800] ------- [4:255 -1:255 32 0] 
r 0.892406841 _7_ RTR  --- 16 message 32 [0 ffffffff 4 800] ------- [4:255 -1:255 32 0] 
r 0.892406871 _22_ RTR  --- 16 message 32 [0 ffffffff 4 800] ------- [4:255 -1:255 32 0] 
r 0.892406911 _6_ RTR  --- 16 message 32 [0 ffffffff 4 800] ------- [4:255 -1:255 32 0] 
r 0.892406938 _10_ RTR  --- 16 message 32 [0 ffffffff 4 800] ------- [4:255 -1:255 32 0] 
r 0.892406940 _21_ RTR  --- 16 message 32 [0 ffffffff 4 800] ------- [4:255 -1:255 32 0] 
r 0.892406963 _23_ RTR  --- 16 message 32 [0 ffffffff 4 800] ------- [4:255 -1:255 32 0] 
s 0.932265375 _25_ RTR  --- 17 message 32 [0 0 0 0] ------- [25:255 -1:255 32 0] 
r 0.933225399 _5_ RTR  --- 17 message 32 [0 ffffffff 19 800] ------- [25:255 -1:255 32 0] 
r 0.933225477 _22_ RTR  --- 17 message 32 [0 ffffffff 19 800] ------- [25:255 -1:255 32 0] 
r 0.933225609 _10_ RTR  --- 17 message 32 [0 ffffffff 19 800] ------- [25:255 -1:255 32 0] 
r 0.933225784 _23_ RTR  --- 17 message 32 [0 ffffffff 19 800] ------- [25:255 -1:255 32 0] 
r 0.933225789 _21_ RTR  --- 17 message 32 [0 ffffffff 19 800] ------- [25:255 -1:255 32 0] 
r 0.933225793 _18_ RTR  --- 17 message 32 [0 ffffffff 19 800] ------- [25:255 -1:255 32 0] 
r 0.933225939 _16_ RTR  --- 17 message 32 [0 ffffffff 19 800] ------- [25:255 -1:255 32 0] 
r 0.933225972 _8_ RTR  --- 17 message 32 [0 ffffffff 19 800] ------- [25:255 -1:255 32 0] 
r 0.933225997 _4_ RTR  --- 17 message 32 [0 ffffffff 19 800] ------- [25:255 -1:255 32 0] 
r 0.933226026 _0_ RTR  --- 17 message 32 [0 ffffffff 19 800] ------- [25:255 -1:255 32 0] 
r 0.933226032 _26_ RTR  --- 17 message 32 [0 ffffffff 19 800] ------- [25:255 -1:255 32 0] 
r 0.933226070 _9_ RTR  --- 17 message 32 [0 ffffffff 19 800] ------- [25:255 -1:255 32 0] 
r 0.933226074 _11_ RTR  --- 17 message 32 [0 ffffffff 19 800] ------- [25:255 -1:255 32 0] 
r 0.933226134 _17_ RTR  --- 17 message 32 [0 ffffffff 19 800] ------- [25:255 -1:255 32 0] 
r 0.933226140 _14_ RTR  --- 17 message 32 [0 ffffffff 19 800] ------- [25:255 -1:255 32 0] 
M 1.00000 0 (225.51, 126.65, 0.00), (215.05, 126.65), 10.46
M 1.00000 1 (198.35, 240.00, 0.00), (198.35, 240.00), 29.25
s 1.045355908 _24_ RTR  --- 18 message 32 [0 0 0 0] ------- [24:255 -1:255 32 0] 
r 1.046676046 _28_ RTR  --- 18 message 32 [0 ffffffff 18 800] ------- [24:255 -1:255 32 0] 
r 1.046676187 _9_ RTR  --- 18 message 32 [0 ffffffff 18 800] ------- [24:255 -1:255 32 0] 
r 1.046676197 _17_ RTR  --- 18 message 32 [0 ffffffff 18 800] ------- [24:255 -1:255 32 0] 
r 1.046676229 _0_ RTR  --- 18 message 32 [0 ffffffff 18 800] ------- [24:255 -1:255 32 0] 
r 1.046676340 _29_ RTR  --- 18 message 32 [0 ffffffff 18 800] ------- [24:255 -1:255 32 0] 
r 1.046676344 _19_ RTR  --- 18 message 32 [0 ffffffff 18 800] ------- [24:255 -1:255 32 0] 
r 1.046676351 _1_ RTR  --- 18 message 32 [0 ffffffff 18 800] ------- [24:255 -1:255 32 0] 
r 1.046676352 _12_ RTR  --- 18 message 32 [0 ffffffff 18 800] ------- [24:255 -1:255 32 0] 
r 1.046676352 _2_ RTR  --- 18 message 32 [0 ffffffff 18 800] ------- [24:255 -1:255 32 0] 
r 1.046676397 _15_ RTR  --- 18 message 32 [0 ffffffff 18 800] ------- [24:255 -1:255 32 0] 
r 1.046676397 _3_ RTR  --- 18 message 32 [0 ffffffff 18 800] ------- [24:255 -1:255 32 0] 
r 1.046676432 _14_ RTR  --- 18 message 32 [0 ffffffff 18 800] ------- [24:255 -1:255 32 0] 
r 1.046676624 _16_ RTR  --- 18 message 32 [0 ffffffff 18 800] ------- [24:255 -1:255 32 0] 
s 1.117914998 _1_ RTR  --- 19 message 32 [0 0 0 0] ------- [1:255 -1:255 32 0] 
r 1.118994999 _2_ RTR  --- 19 message 32 [0 ffffffff 1 800] ------- [1:255 -1:255 32 0] 
r 1.118995102 _14_ RTR  --- 19 message 32 [0 ffffffff 1 800] ------- [1:255 -1:255 32 0] 
r 1.118995379 _9_ RTR  --- 19 message 32 [0 ffffffff 1 800] ------- [1:255 -1:255 32 0] 
r 1.118995385 _12_ RTR  --- 19 message 32 [0 ffffffff 1 800] ------- [1:255 -1:255 32 0] 
r 1.118995386 _0_ RTR  --- 19 message 32 [0 ffffffff 1 800] ------- [1:255 -1:255 32 0] 
r 1.118995391 _19_ RTR  --- 19 message 32 [0 ffffffff 1 800] ------- [1:255 -1:255 32 0] 
r 1.118995398 _28_ RTR  --- 19 message 32 [0 ffffffff 1 800] ------- [1:255 -1:255 32 0] 
r 1.118995442 _24_ RTR  --- 19 message 32 [0 ffffffff 1 800] ------- [1:255 -1:255 32 0] 
r 1.118995549 _17_ RTR  --- 19 message 32 [0 ffffffff 1 800] ------- [1:255 -1:255 32 0] 
r 1.118995769 _18_ RTR  --- 19 message 32 [0 ffffffff 1 800] ------- [1:255 -1:255 32 0] 
r 1.118995807 _22_ RTR  --- 19 message 32 [0 ffffffff 1 800] ------- [1:255 -1:255 32 0] 
r 1.118995814 _5_ RTR  --- 19 message 32 [0 ffffffff 1 800] ------- [1:255 -1:255 32 0] 
s 1.279806438 _9_ RTR  --- 20 message 32 [0 0 0 0] ------- [9:255 -1:255 32 0] 
r 1.281146472 _0_ RTR  --- 20 message 32 [0 ffffffff 9 800] ------- [9:255 -1:255 32 0] 
r 1.281146580 _28_ RTR  --- 20 message 32 [0 ffffffff 9 800] ------- [9:255 -1:255 32 0] 
r 1.281146617 _17_ RTR  --- 20 message 32 [0 ffffffff 9 800] ------- [9:255 -1:255 32 0] 
r 1.281146716 _24_ RTR  --- 20 message 32 [0 ffffffff 9 800] ------- [9:255 -1:255 32 0] 
r 1.281146819 _1_ RTR  --- 20 message 32 [0 ffffffff 9 800] ------- [9:255 -1:255 32 0] 
r 1.281146819 _2_ RTR  --- 20 message 32 [0 ffffffff 9 800] ------- [9:255 -1:255 32 0] 
r 1.281146847 _14_ RTR  --- 20 message 32 [0 ffffffff 9 800] ------- [9:255 -1:255 32 0] 
r 1.281146953 _16_ RTR  --- 20 message 32 [0 ffffffff 9 800] ------- [9:255 -1:255 32 0] 
r 1.281147009 _29_ RTR  --- 20 message 32 [0 ffffffff 9 800] ------- [9:255 -1:255 32 0] 
r 1.281147036 _19_ RTR  --- 20 message 32 [0 ffffffff 9 800] ------- [9:255 -1:255 32 0] 
r 1.281147038 _12_ RTR  --- 20 message 32 [0 ffffffff 9 800] ------- [9:255 -1:255 32 0] 
r 1.281147063 _22_ RTR  --- 20 message 32 [0 ffffffff 9 800] ------- [9:255 -1:255 32 0] 
r 1.281147100 _10_ RTR  --- 20 message 32 [0 ffffffff 9 800] ------- [9:255 -1:255 32 0] 
r 1.281147108 _5_ RTR  --- 20 message 32 [0 ffffffff 9 800] ------- [9:255 -1:255 32 0] 
r 1.281147115 _3_ RTR  --- 20 message 32 [0 ffffffff 9 800] ------- [9:255 -1:255 32 0] 
r 1.281147132 _25_ RTR  --- 20 message 32 [0 ffffffff 9 800] ------- [9:255 -1:255 32 0] 
r 1.281147181 _15_ RTR  --- 20 message 32 [0 ffffffff 9 800] ------- [9:255 -1:255 32 0] 
r 1.281147267 _18_ RTR  --- 20 message 32 [0 ffffffff 9 800] ------- [9:255 -1:255 32 0] 
s 1.284507540 _14_ RTR  --- 21 message 32 [0 0 0 0] ------- [14:255 -1:255 32 0] 
r 1.285347644 _2_ RTR  --- 21 message 32 [0 ffffffff e 800] ------- [14:255 -1:255 32 0] 
r 1.285347644 _1_ RTR  --- 21 message 32 [0 ffffffff e 800] ------- [14:255 -1:255 32 0] 
r 1.285347946 _0_ RTR  --- 21 message 32 [0 ffffffff e 800] ------- [14:255 -1:255 32 0] 
r 1.285347949 _9_ RTR  --- 21 message 32 [0 ffffffff e 800] ------- [14:255 -1:255 32 0] 
r 1.285348000 _28_ RTR  --- 21 message 32 [0 ffffffff e 800] ------- [14:255 -1:255 32 0] 
r 1.285348025 _12_ RTR  --- 21 message 32 [0 ffffffff e 800] ------- [14:255 -1:255 32 0] 
r 1.285348032 _19_ RTR  --- 21 message 32 [0 ffffffff e 800] ------- [14:255 -1:255 32 0] 
r 1.285348064 _24_ RTR  --- 21 message 32 [0 ffffffff e 800] ------- [14:255 -1:255 32 0] 
r 1.285348127 _17_ RTR  --- 21 message 32 [0 ffffffff e 800] ------- [14:255 -1:255 32 0] 
r 1.285348210 _18_ RTR  --- 21 message 32 [0 ffffffff e 800] ------- [14:255 -1:255 32 0] 
r 1.285348285 _5_ RTR  --- 21 message 32 [0 ffffffff e 800] ------- [14:255 -1:255 32 0] 
r 1.285348286 _22_ RTR  --- 21 message 32 [0 ffffffff e 800] ------- [14:255 -1:255 32 0] 
r 1.285348304 _25_ RTR  --- 21 message 32 [0 ffffffff e 800] ------- [14:255 -1:255 32 0] 
s 1.388917713 _26_ RTR  --- 22 message 32 [0 0 0 0] ------- [26:255 -1:255 32 0] 
r 1.389757784 _4_ RTR  --- 22 message 32 [0 ffffffff 1a 800] ------- [26:255 -1:255 32 0] 
r 1.389757890 _11_ RTR  --- 22 message 32 [0 ffffffff 1a 800] ------- [26:255 -1:255 32 0] 
r 1.389758047 _8_ RTR  --- 22 message 32 [0 ffffffff 1a 800] ------- [26:255 -1:255 32 0] 
r 1.389758110 _20_ RTR  --- 22 message 32 [0 ffffffff 1a 800] ------- [26:255 -1:255 32 0] 
r 1.389758309 _18_ RTR  --- 22 message 32 [0 ffffffff 1a 800] ------- [26:255 -1:255 32 0] 
r 1.389758367 _7_ RTR  --- 22 message 32 [0 ffffffff 1a 800] ------- [26:255 -1:255 32 0] 
r 1.389758369 _27_ RTR  --- 22 message 32 [0 ffffffff 1a 800] ------- [26:255 -1:255 32 0] 
r 1.389758369 _25_ RTR  --- 22 message 32 [0 ffffffff 1a 800] ------- [26:255 -1:255 32 0] 
r 1.389758391 _5_ RTR  --- 22 message 32 [0 ffffffff 1a 800] ------- [26:255 -1:255 32 0] 
r 1.389758443 _13_ RTR  --- 22 message 32 [0 ffffffff 1a 800] ------- [26:255 -1:255 32 0] 
r 1.389758466 _22_ RTR  --- 22 message 32 [0 ffffffff 1a 800] ------- [26:255 -1:255 32 0] 
r 1.389758494 _6_ RTR  --- 22 message 32 [0 ffffffff 1a 800] ------- [26:255 -1:255 32 0] 
r 1.389758543 _10_ RTR  --- 22 message 32 [0 ffffffff 1a 800] ------- [26:255 -1:255 32 0] 
s 1.603158648 _5_ RTR  --- 23 message 32 [0 0 0 0] ------- [5:255 -1:255 32 0] 
r 1.604458672 _25_ RTR  --- 23 message 32 [0 ffffffff 5 800] ------- [5:255 -1:255 32 0] 
r 1.604458734 _22_ RTR  --- 23 message 32 [0 ffffffff 5 800] ------- [5:255 -1:255 32 0] 
r 1.604458875 _10_ RTR  --- 23 message 32 [0 ffffffff 5 800] ------- [5:255 -1:255 32 0] 
r 1.604459060 _23_ RTR  --- 23 message 32 [0 ffffffff 5 800] ------- [5:255 -1:255 32 0] 
r 1.604459067 _21_ RTR  --- 23 message 32 [0 ffffffff 5 800] ------- [5:255 -1:255 32 0] 
r 1.604459068 _18_ RTR  --- 23 message 32 [0 ffffffff 5 800] ------- [5:255 -1:255 32 0] 
r 1.604459195 _16_ RTR  --- 23 message 32 [0 ffffffff 5 800] ------- [5:255 -1:255 32 0] 
r 1.604459269 _8_ RTR  --- 23 message 32 [0 ffffffff 5 800] ------- [5:255 -1:255 32 0] 
r 1.604459292 _4_ RTR  --- 23 message 32 [0 ffffffff 5 800] ------- [5:255 -1:255 32 0] 
r 1.604459296 _0_ RTR  --- 23 message 32 [0 ffffffff 5 800] ------- [5:255 -1:255 32 0] 
r 1.604459319 _9_ RTR  --- 23 message 32 [0 ffffffff 5 800] ------- [5:255 -1:255 32 0] 
r 1.604459326 _26_ RTR  --- 23 message 32 [0 ffffffff 5 800] ------- [5:255 -1:255 32 0] 
r 1.604459365 _11_ RTR  --- 23 message 32 [0 ffffffff 5 800] ------- [5:255 -1:255 32 0] 
r 1.604459383 _17_ RTR  --- 23 message 32 [0 ffffffff 5 800] ------- [5:255 -1:255 32 0] 
r 1.604459393 _14_ RTR  --- 23 message 32 [0 ffffffff 5 800] ------- [5:255 -1:255 32 0] 