n -t * -s 0  -x 904.05999999999995 -y 97.540000000000006 -Z 0 -z 100  -v circle -c black
n -t * -s 1  -x 1008.5599999999999 -y 589.00999999999999 -Z 0 -z 100  -v circle -c black
n -t * -s 2  -x 796.64999999999998 -y 217.97 -Z 0 -z 100  -v circle -c black
n -t * -s 3  -x 153.84 -y 113.98 -Z 0 -z 100  -v circle -c black
n -t * -s 4  -x 837.92999999999995 -y 357.58999999999997 -Z 0 -z 100  -v circle -c black
n -t * -s 5  -x 1160.4400000000001 -y 727.26999999999998 -Z 0 -z 100  -v circle -c black
n -t * -s 6  -x 296.11000000000001 -y 946.76999999999998 -Z 0 -z 100  -v circle -c black
n -t * -s 7  -x 161.13 -y 733.77999999999997 -Z 0 -z 100  -v circle -c black
n -t * -s 8  -x 548.22000000000003 -y 180.44999999999999 -Z 0 -z 100  -v circle -c black
n -t * -s 9  -x 527.82000000000005 -y 822.08000000000004 -Z 0 -z 100  -v circle -c black
n -t * -s 10  -x 146.56 -y 671.02999999999997 -Z 0 -z 100  -v circle -c black
n -t * -s 11  -x 650.89999999999998 -y 1325.52 -Z 0 -z 100  -v circle -c black
n -t * -s 12  -x 644.03999999999996 -y 1151.25 -Z 0 -z 100  -v circle -c black
n -t * -s 13  -x 1169.4100000000001 -y 480.81 -Z 0 -z 100  -v circle -c black
n -t * -s 14  -x 982.90999999999997 -y 687.60000000000002 -Z 0 -z 100  -v circle -c black
n -t * -s 15  -x 106.01000000000001 -y 904.58000000000004 -Z 0 -z 100  -v circle -c black
n -t * -s 16  -x 193.84999999999999 -y 1115.04 -Z 0 -z 100  -v circle -c black
n -t * -s 17  -x 706.51999999999998 -y 161.80000000000001 -Z 0 -z 100  -v circle -c black
n -t * -s 18  -x 822.34000000000003 -y 739.63 -Z 0 -z 100  -v circle -c black
n -t * -s 19  -x 97.159999999999997 -y 718.51999999999998 -Z 0 -z 100  -v circle -c black
n -t * -s 20  -x 143.72999999999999 -y 770.77999999999997 -Z 0 -z 100  -v circle -c black
n -t * -s 21  -x 643.10000000000002 -y 1153.3900000000001 -Z 0 -z 100  -v circle -c black
n -t * -s 22  -x 323.75 -y 275.69 -Z 0 -z 100  -v circle -c black
n -t * -s 23  -x 809.20000000000005 -y 1279.99 -Z 0 -z 100  -v circle -c black
n -t * -s 24  -x 45.109999999999999 -y 1286.75 -Z 0 -z 100  -v circle -c black
n -t * -s 25  -x 157.78999999999999 -y 807.78999999999996 -Z 0 -z 100  -v circle -c black
n -t * -s 26  -x 0 -y 0 -Z 0 -z 100  -v circle -c black
n -t * -s 27  -x 0 -y 0 -Z 0 -z 100  -v circle -c black
n -t * -s 28  -x 0 -y 1000 -Z 0 -z 100  -v circle -c black
n -t * -s 29  -x 1000 -y 0 -Z 0 -z 100  -v circle -c black
V -t * -v 1.0a5 -a 0
W -t * -x 1700 -y 1700
A -t * -n 1 -p 0 -o 0x7fffffff -c 30 -a 1
A -t * -h 1 -m 1073741823 -s 0
n -t 0.000000 -s 0 -x 904.060000 -y 97.540000 -U 0.000000 -V 0.000000 -T 0.000000
n -t 0.000000 -s 1 -x 1008.560000 -y 589.010000 -U 0.000000 -V 0.000000 -T 0.000000
n -t 0.000000 -s 2 -x 796.650000 -y 217.970000 -U 0.000000 -V 0.000000 -T 0.000000
n -t 0.000000 -s 3 -x 153.840000 -y 113.980000 -U 0.000000 -V 0.000000 -T 0.000000
n -t 0.000000 -s 4 -x 837.930000 -y 357.590000 -U 0.000000 -V 0.000000 -T 0.000000
n -t 0.000000 -s 5 -x 1160.440000 -y 727.270000 -U 0.000000 -V 0.000000 -T 0.000000
n -t 0.000000 -s 6 -x 296.110000 -y 946.770000 -U 0.000000 -V 0.000000 -T 0.000000
n -t 0.000000 -s 7 -x 161.130000 -y 733.780000 -U 0.000000 -V 0.000000 -T 0.000000
n -t 0.000000 -s 8 -x 548.220000 -y 180.450000 -U 0.000000 -V 0.000000 -T 0.000000
n -t 0.000000 -s 9 -x 527.820000 -y 822.080000 -U 0.000000 -V 0.000000 -T 0.000000
n -t 0.000000 -s 10 -x 146.560000 -y 671.030000 -U 0.000000 -V 0.000000 -T 0.000000
n -t 0.000000 -s 11 -x 650.900000 -y 1325.520000 -U 0.000000 -V 0.000000 -T 0.000000
n -t 0.000000 -s 12 -x 644.040000 -y 1151.250000 -U 0.000000 -V 0.000000 -T 0.000000
n -t 0.000000 -s 13 -x 1169.410000 -y 480.810000 -U 0.000000 -V 0.000000 -T 0.000000
n -t 0.000000 -s 14 -x 982.910000 -y 687.600000 -U 0.000000 -V 0.000000 -T 0.000000
n -t 0.000000 -s 15 -x 106.010000 -y 904.580000 -U 0.000000 -V 0.000000 -T 0.000000
n -t 0.000000 -s 16 -x 193.850000 -y 1115.040000 -U 0.000000 -V 0.000000 -T 0.000000
n -t 0.000000 -s 17 -x 706.520000 -y 161.800000 -U 0.000000 -V 0.000000 -T 0.000000
n -t 0.000000 -s 18 -x 822.340000 -y 739.630000 -U 0.000000 -V 0.000000 -T 0.000000
n -t 0.000000 -s 19 -x 97.160000 -y 718.520000 -U 0.000000 -V 0.000000 -T 0.000000
n -t 0.000000 -s 20 -x 143.730000 -y 770.780000 -U 0.000000 -V 0.000000 -T 0.000000
n -t 0.000000 -s 21 -x 643.100000 -y 1153.390000 -U 0.000000 -V 0.000000 -T 0.000000
n -t 0.000000 -s 22 -x 323.750000 -y 275.690000 -U 0.000000 -V 0.000000 -T 0.000000
n -t 0.000000 -s 23 -x 809.200000 -y 1279.990000 -U 0.000000 -V 0.000000 -T 0.000000
n -t 0.000000 -s 24 -x 45.110000 -y 1286.750000 -U 0.000000 -V 0.000000 -T 0.000000
n -t 0.000000 -s 25 -x 157.790000 -y 807.790000 -U 0.000000 -V 0.000000 -T 0.000000
n -t 0.000000 -s 0 -x 904.060000 -y 97.540000 -U 0.000000 -V 0.000000 -T 0.000000
n -t 0.000000 -s 1 -x 1008.560000 -y 589.010000 -U 0.000000 -V 0.000000 -T 0.000000
+ -t 0.003091411 -s 0 -d -1 -p message -e 32 -c 2 -a 0 -i 0 -k RTR 
- -t 0.003091411 -s 0 -d -1 -p message -e 32 -c 2 -a 0 -i 0 -k RTR
h -t 0.003091411 -s 0 -d -1 -p message -e 32 -c 2 -a 0 -i 0 -k RTR
+ -t 0.003466411 -s 0 -d -1 -p message -e 90 -c 2 -a 0 -i 0 -k MAC 
- -t 0.003466411 -s 0 -d -1 -p message -e 90 -c 2 -a 0 -i 0 -k MAC
h -t 0.003466411 -s 0 -d -1 -p message -e 90 -c 2 -a 0 -i 0 -k MAC
r -t 0.004186867 -s 29 -d -1 -p message -e 32 -c 2 -a 0 -i 0 -k MAC
r -t 0.004186949 -s 2 -d -1 -p message -e 32 -c 2 -a 0 -i 0 -k MAC
r -t 0.004187103 -s 17 -d -1 -p message -e 32 -c 2 -a 0 -i 0 -k MAC
r -t 0.004187305 -s 4 -d -1 -p message -e 32 -c 2 -a 0 -i 0 -k MAC
r -t 0.004187629 -s 8 -d -1 -p message -e 32 -c 2 -a 0 -i 0 -k MAC
r -t 0.004211867 -s 29 -d -1 -p message -e 32 -c 2 -a 0 -i 0 -k RTR
r -t 0.004211949 -s 2 -d -1 -p message -e 32 -c 2 -a 0 -i 0 -k RTR
r -t 0.004212103 -s 17 -d -1 -p message -e 32 -c 2 -a 0 -i 0 -k RTR
r -t 0.004212305 -s 4 -d -1 -p message -e 32 -c 2 -a 0 -i 0 -k RTR
r -t 0.004212629 -s 8 -d -1 -p message -e 32 -c 2 -a 0 -i 0 -k RTR
+ -t 0.037458776 -s 2 -d -1 -p message -e 32 -c 2 -a 0 -i 1 -k RTR 
- -t 0.037458776 -s 2 -d -1 -p message -e 32 -c 2 -a 0 -i 1 -k RTR
h -t 0.037458776 -s 2 -d -1 -p message -e 32 -c 2 -a 0 -i 1 -k RTR
+ -t 0.037813776 -s 2 -d -1 -p message -e 90 -c 2 -a 0 -i 1 -k MAC 
- -t 0.037813776 -s 2 -d -1 -p message -e 90 -c 2 -a 0 -i 1 -k MAC
h -t 0.037813776 -s 2 -d -1 -p message -e 90 -c 2 -a 0 -i 1 -k MAC
r -t 0.038534130 -s 17 -d -1 -p message -e 32 -c 2 -a 0 -i 1 -k MAC
r -t 0.038534261 -s 4 -d -1 -p message -e 32 -c 2 -a 0 -i 1 -k MAC
r -t 0.038534314 -s 0 -d -1 -p message -e 32 -c 2 -a 0 -i 1 -k MAC
r -t 0.038534613 -s 8 -d -1 -p message -e 32 -c 2 -a 0 -i 1 -k MAC
r -t 0.038534770 -s 29 -d -1 -p message -e 32 -c 2 -a 0 -i 1 -k MAC
r -t 0.038559130 -s 17 -d -1 -p message -e 32 -c 2 -a 0 -i 1 -k RTR
r -t 0.038559261 -s 4 -d -1 -p message -e 32 -c 2 -a 0 -i 1 -k RTR
r -t 0.038559314 -s 0 -d -1 -p message -e 32 -c 2 -a 0 -i 1 -k RTR
r -t 0.038559613 -s 8 -d -1 -p message -e 32 -c 2 -a 0 -i 1 -k RTR
r -t 0.038559770 -s 29 -d -1 -p message -e 32 -c 2 -a 0 -i 1 -k RTR
+ -t 0.087462768 -s 13 -d -1 -p message -e 32 -c 2 -a 0 -i 2 -k RTR 
- -t 0.087462768 -s 13 -d -1 -p message -e 32 -c 2 -a 0 -i 2 -k RTR
h -t 0.087462768 -s 13 -d -1 -p message -e 32 -c 2 -a 0 -i 2 -k RTR
+ -t 0.087757768 -s 13 -d -1 -p message -e 90 -c 2 -a 0 -i 2 -k MAC 
- -t 0.087757768 -s 13 -d -1 -p message -e 90 -c 2 -a 0 -i 2 -k MAC
h -t 0.087757768 -s 13 -d -1 -p message -e 90 -c 2 -a 0 -i 2 -k MAC
r -t 0.088478414 -s 1 -d -1 -p message -e 32 -c 2 -a 0 -i 2 -k MAC
r -t 0.088478590 -s 5 -d -1 -p message -e 32 -c 2 -a 0 -i 2 -k MAC
r -t 0.088478696 -s 14 -d -1 -p message -e 32 -c 2 -a 0 -i 2 -k MAC
r -t 0.088478947 -s 4 -d -1 -p message -e 32 -c 2 -a 0 -i 2 -k MAC
r -t 0.088503414 -s 1 -d -1 -p message -e 32 -c 2 -a 0 -i 2 -k RTR
r -t 0.088503590 -s 5 -d -1 -p message -e 32 -c 2 -a 0 -i 2 -k RTR
r -t 0.088503696 -s 14 -d -1 -p message -e 32 -c 2 -a 0 -i 2 -k RTR
r -t 0.088503947 -s 4 -d -1 -p message -e 32 -c 2 -a 0 -i 2 -k RTR
+ -t 0.177365656 -s 3 -d -1 -p message -e 32 -c 2 -a 0 -i 3 -k RTR 
- -t 0.177365656 -s 3 -d -1 -p message -e 32 -c 2 -a 0 -i 3 -k RTR
h -t 0.177365656 -s 3 -d -1 -p message -e 32 -c 2 -a 0 -i 3 -k RTR
+ -t 0.177560656 -s 3 -d -1 -p message -e 90 -c 2 -a 0 -i 3 -k MAC 
- -t 0.177560656 -s 3 -d -1 -p message -e 90 -c 2 -a 0 -i 3 -k MAC
h -t 0.177560656 -s 3 -d -1 -p message -e 90 -c 2 -a 0 -i 3 -k MAC
r -t 0.178281294 -s 27 -d -1 -p message -e 32 -c 2 -a 0 -i 3 -k MAC
r -t 0.178281294 -s 26 -d -1 -p message -e 32 -c 2 -a 0 -i 3 -k MAC
r -t 0.178281438 -s 22 -d -1 -p message -e 32 -c 2 -a 0 -i 3 -k MAC
r -t 0.178281989 -s 8 -d -1 -p message -e 32 -c 2 -a 0 -i 3 -k MAC
r -t 0.178306294 -s 27 -d -1 -p message -e 32 -c 2 -a 0 -i 3 -k RTR
r -t 0.178306294 -s 26 -d -1 -p message -e 32 -c 2 -a 0 -i 3 -k RTR
r -t 0.178306438 -s 22 -d -1 -p message -e 32 -c 2 -a 0 -i 3 -k RTR
r -t 0.178306989 -s 8 -d -1 -p message -e 32 -c 2 -a 0 -i 3 -k RTR
+ -t 0.191634337 -s 19 -d -1 -p message -e 32 -c 2 -a 0 -i 4 -k RTR 
- -t 0.191634337 -s 19 -d -1 -p message -e 32 -c 2 -a 0 -i 4 -k RTR
h -t 0.191634337 -s 19 -d -1 -p message -e 32 -c 2 -a 0 -i 4 -k RTR
+ -t 0.191889337 -s 19 -d -1 -p message -e 90 -c 2 -a 0 -i 4 -k MAC 
- -t 0.191889337 -s 19 -d -1 -p message -e 90 -c 2 -a 0 -i 4 -k MAC
h -t 0.191889337 -s 19 -d -1 -p message -e 90 -c 2 -a 0 -i 4 -k MAC
r -t 0.192609556 -s 7 -d -1 -p message -e 32 -c 2 -a 0 -i 4 -k MAC
r -t 0.192609565 -s 10 -d -1 -p message -e 32 -c 2 -a 0 -i 4 -k MAC
r -t 0.192609570 -s 20 -d -1 -p message -e 32 -c 2 -a 0 -i 4 -k MAC
r -t 0.192609696 -s 25 -d -1 -p message -e 32 -c 2 -a 0 -i 4 -k MAC
r -t 0.192609958 -s 15 -d -1 -p message -e 32 -c 2 -a 0 -i 4 -k MAC
r -t 0.192610329 -s 28 -d -1 -p message -e 32 -c 2 -a 0 -i 4 -k MAC
r -t 0.192610346 -s 6 -d -1 -p message -e 32 -c 2 -a 0 -i 4 -k MAC
r -t 0.192634556 -s 7 -d -1 -p message -e 32 -c 2 -a 0 -i 4 -k RTR
r -t 0.192634565 -s 10 -d -1 -p message -e 32 -c 2 -a 0 -i 4 -k RTR
r -t 0.192634570 -s 20 -d -1 -p message -e 32 -c 2 -a 0 -i 4 -k RTR
r -t 0.192634696 -s 25 -d -1 -p message -e 32 -c 2 -a 0 -i 4 -k RTR
r -t 0.192634958 -s 15 -d -1 -p message -e 32 -c 2 -a 0 -i 4 -k RTR
r -t 0.192635329 -s 28 -d -1 -p message -e 32 -c 2 -a 0 -i 4 -k RTR
r -t 0.192635346 -s 6 -d -1 -p message -e 32 -c 2 -a 0 -i 4 -k RTR
+ -t 0.234603229 -s 15 -d -1 -p message -e 32 -c 2 -a 0 -i 5 -k RTR 
- -t 0.234603229 -s 15 -d -1 -p message -e 32 -c 2 -a 0 -i 5 -k RTR
h -t 0.234603229 -s 15 -d -1 -p message -e 32 -c 2 -a 0 -i 5 -k RTR
+ -t 0.234898229 -s 15 -d -1 -p message -e 90 -c 2 -a 0 -i 5 -k MAC 
- -t 0.234898229 -s 15 -d -1 -p message -e 90 -c 2 -a 0 -i 5 -k MAC
h -t 0.234898229 -s 15 -d -1 -p message -e 90 -c 2 -a 0 -i 5 -k MAC
r -t 0.235618595 -s 25 -d -1 -p message -e 32 -c 2 -a 0 -i 5 -k MAC
r -t 0.235618693 -s 20 -d -1 -p message -e 32 -c 2 -a 0 -i 5 -k MAC
r -t 0.235618705 -s 28 -d -1 -p message -e 32 -c 2 -a 0 -i 5 -k MAC
r -t 0.235618828 -s 7 -d -1 -p message -e 32 -c 2 -a 0 -i 5 -k MAC
r -t 0.235618850 -s 19 -d -1 -p message -e 32 -c 2 -a 0 -i 5 -k MAC
r -t 0.235618879 -s 6 -d -1 -p message -e 32 -c 2 -a 0 -i 5 -k MAC
r -t 0.235618990 -s 16 -d -1 -p message -e 32 -c 2 -a 0 -i 5 -k MAC
r -t 0.235619020 -s 10 -d -1 -p message -e 32 -c 2 -a 0 -i 5 -k MAC
r -t 0.235619519 -s 24 -d -1 -p message -e 32 -c 2 -a 0 -i 5 -k MAC
r -t 0.235643595 -s 25 -d -1 -p message -e 32 -c 2 -a 0 -i 5 -k RTR
r -t 0.235643693 -s 20 -d -1 -p message -e 32 -c 2 -a 0 -i 5 -k RTR
r -t 0.235643705 -s 28 -d -1 -p message -e 32 -c 2 -a 0 -i 5 -k RTR
r -t 0.235643828 -s 7 -d -1 -p message -e 32 -c 2 -a 0 -i 5 -k RTR
r -t 0.235643850 -s 19 -d -1 -p message -e 32 -c 2 -a 0 -i 5 -k RTR
r -t 0.235643879 -s 6 -d -1 -p message -e 32 -c 2 -a 0 -i 5 -k RTR
r -t 0.235643990 -s 16 -d -1 -p message -e 32 -c 2 -a 0 -i 5 -k RTR
r -t 0.235644020 -s 10 -d -1 -p message -e 32 -c 2 -a 0 -i 5 -k RTR
r -t 0.235644519 -s 24 -d -1 -p message -e 32 -c 2 -a 0 -i 5 -k RTR
+ -t 0.333839210 -s 12 -d -1 -p message -e 32 -c 2 -a 0 -i 6 -k RTR 
- -t 0.333839210 -s 12 -d -1 -p message -e 32 -c 2 -a 0 -i 6 -k RTR
h -t 0.333839210 -s 12 -d -1 -p message -e 32 -c 2 -a 0 -i 6 -k RTR
+ -t 0.333994210 -s 12 -d -1 -p message -e 90 -c 2 -a 0 -i 6 -k MAC 
- -t 0.333994210 -s 12 -d -1 -p message -e 90 -c 2 -a 0 -i 6 -k MAC
h -t 0.333994210 -s 12 -d -1 -p message -e 90 -c 2 -a 0 -i 6 -k MAC
r -t 0.334714218 -s 21 -d -1 -p message -e 32 -c 2 -a 0 -i 6 -k MAC
r -t 0.334714791 -s 11 -d -1 -p message -e 32 -c 2 -a 0 -i 6 -k MAC
r -t 0.334714908 -s 23 -d -1 -p message -e 32 -c 2 -a 0 -i 6 -k MAC
r -t 0.334715374 -s 9 -d -1 -p message -e 32 -c 2 -a 0 -i 6 -k MAC
r -t 0.334739218 -s 21 -d -1 -p message -e 32 -c 2 -a 0 -i 6 -k RTR
r -t 0.334739791 -s 11 -d -1 -p message -e 32 -c 2 -a 0 -i 6 -k RTR
r -t 0.334739908 -s 23 -d -1 -p message -e 32 -c 2 -a 0 -i 6 -k RTR
r -t 0.334740374 -s 9 -d -1 -p message -e 32 -c 2 -a 0 -i 6 -k RTR
+ -t 0.351472650 -s 18 -d -1 -p message -e 32 -c 2 -a 0 -i 7 -k RTR 
- -t 0.351472650 -s 18 -d -1 -p message -e 32 -c 2 -a 0 -i 7 -k RTR
h -t 0.351472650 -s 18 -d -1 -p message -e 32 -c 2 -a 0 -i 7 -k RTR
+ -t 0.351847650 -s 18 -d -1 -p message -e 90 -c 2 -a 0 -i 7 -k MAC 
- -t 0.351847650 -s 18 -d -1 -p message -e 90 -c 2 -a 0 -i 7 -k MAC
h -t 0.351847650 -s 18 -d -1 -p message -e 90 -c 2 -a 0 -i 7 -k MAC
r -t 0.352568213 -s 14 -d -1 -p message -e 32 -c 2 -a 0 -i 7 -k MAC
r -t 0.352568449 -s 1 -d -1 -p message -e 32 -c 2 -a 0 -i 7 -k MAC
r -t 0.352568670 -s 9 -d -1 -p message -e 32 -c 2 -a 0 -i 7 -k MAC
r -t 0.352568778 -s 5 -d -1 -p message -e 32 -c 2 -a 0 -i 7 -k MAC
r -t 0.352568925 -s 4 -d -1 -p message -e 32 -c 2 -a 0 -i 7 -k MAC
r -t 0.352593213 -s 14 -d -1 -p message -e 32 -c 2 -a 0 -i 7 -k RTR
r -t 0.352593449 -s 1 -d -1 -p message -e 32 -c 2 -a 0 -i 7 -k RTR
r -t 0.352593670 -s 9 -d -1 -p message -e 32 -c 2 -a 0 -i 7 -k RTR
r -t 0.352593778 -s 5 -d -1 -p message -e 32 -c 2 -a 0 -i 7 -k RTR
r -t 0.352593925 -s 4 -d -1 -p message -e 32 -c 2 -a 0 -i 7 -k RTR
+ -t 0.436386259 -s 29 -d -1 -p message -e 32 -c 2 -a 0 -i 8 -k RTR 
- -t 0.436386259 -s 29 -d -1 -p message -e 32 -c 2 -a 0 -i 8 -k RTR
h -t 0.436386259 -s 29 -d -1 -p message -e 32 -c 2 -a 0 -i 8 -k RTR
+ -t 0.436701259 -s 29 -d -1 -p message -e 90 -c 2 -a 0 -i 8 -k MAC 
- -t 0.436701259 -s 29 -d -1 -p message -e 90 -c 2 -a 0 -i 8 -k MAC
h -t 0.436701259 -s 29 -d -1 -p message -e 90 -c 2 -a 0 -i 8 -k MAC
r -t 0.437421715 -s 0 -d -1 -p message -e 32 -c 2 -a 0 -i 8 -k MAC
r -t 0.437422253 -s 2 -d -1 -p message -e 32 -c 2 -a 0 -i 8 -k MAC
r -t 0.437422376 -s 17 -d -1 -p message -e 32 -c 2 -a 0 -i 8 -k MAC
r -t 0.437422568 -s 4 -d -1 -p message -e 32 -c 2 -a 0 -i 8 -k MAC
r -t 0.437446715 -s 0 -d -1 -p message -e 32 -c 2 -a 0 -i 8 -k RTR
r -t 0.437447253 -s 2 -d -1 -p message -e 32 -c 2 -a 0 -i 8 -k RTR
r -t 0.437447376 -s 17 -d -1 -p message -e 32 -c 2 -a 0 -i 8 -k RTR
r -t 0.437447568 -s 4 -d -1 -p message -e 32 -c 2 -a 0 -i 8 -k RTR
+ -t 0.470117073 -s 8 -d -1 -p message -e 32 -c 2 -a 0 -i 9 -k RTR 
- -t 0.470117073 -s 8 -d -1 -p message -e 32 -c 2 -a 0 -i 9 -k RTR
h -t 0.470117073 -s 8 -d -1 -p message -e 32 -c 2 -a 0 -i 9 -k RTR
+ -t 0.470652073 -s 8 -d -1 -p message -e 90 -c 2 -a 0 -i 9 -k MAC 
- -t 0.470652073 -s 8 -d -1 -p message -e 90 -c 2 -a 0 -i 9 -k MAC
h -t 0.470652073 -s 8 -d -1 -p message -e 90 -c 2 -a 0 -i 9 -k MAC
r -t 0.471372604 -s 17 -d -1 -p message -e 32 -c 2 -a 0 -i 9 -k MAC
r -t 0.471372886 -s 22 -d -1 -p message -e 32 -c 2 -a 0 -i 9 -k MAC
r -t 0.471372910 -s 2 -d -1 -p message -e 32 -c 2 -a 0 -i 9 -k MAC
r -t 0.471373205 -s 4 -d -1 -p message -e 32 -c 2 -a 0 -i 9 -k MAC
r -t 0.471373291 -s 0 -d -1 -p message -e 32 -c 2 -a 0 -i 9 -k MAC
r -t 0.471373406 -s 3 -d -1 -p message -e 32 -c 2 -a 0 -i 9 -k MAC
r -t 0.471397604 -s 17 -d -1 -p message -e 32 -c 2 -a 0 -i 9 -k RTR
r -t 0.471397886 -s 22 -d -1 -p message -e 32 -c 2 -a 0 -i 9 -k RTR
r -t 0.471397910 -s 2 -d -1 -p message -e 32 -c 2 -a 0 -i 9 -k RTR
r -t 0.471398205 -s 4 -d -1 -p message -e 32 -c 2 -a 0 -i 9 -k RTR
r -t 0.471398291 -s 0 -d -1 -p message -e 32 -c 2 -a 0 -i 9 -k RTR
r -t 0.471398406 -s 3 -d -1 -p message -e 32 -c 2 -a 0 -i 9 -k RTR
+ -t 0.521504883 -s 22 -d -1 -p message -e 32 -c 2 -a 0 -i 10 -k RTR 
- -t 0.521504883 -s 22 -d -1 -p message -e 32 -c 2 -a 0 -i 10 -k RTR
h -t 0.521504883 -s 22 -d -1 -p message -e 32 -c 2 -a 0 -i 10 -k RTR
+ -t 0.521659883 -s 22 -d -1 -p message -e 90 -c 2 -a 0 -i 10 -k MAC 
- -t 0.521659883 -s 22 -d -1 -p message -e 90 -c 2 -a 0 -i 10 -k MAC
h -t 0.521659883 -s 22 -d -1 -p message -e 90 -c 2 -a 0 -i 10 -k MAC
r -t 0.522380665 -s 3 -d -1 -p message -e 32 -c 2 -a 0 -i 10 -k MAC
r -t 0.522380696 -s 8 -d -1 -p message -e 32 -c 2 -a 0 -i 10 -k MAC
r -t 0.522381214 -s 17 -d -1 -p message -e 32 -c 2 -a 0 -i 10 -k MAC
r -t 0.522405665 -s 3 -d -1 -p message -e 32 -c 2 -a 0 -i 10 -k RTR
r -t 0.522405696 -s 8 -d -1 -p message -e 32 -c 2 -a 0 -i 10 -k RTR
r -t 0.522406214 -s 17 -d -1 -p message -e 32 -c 2 -a 0 -i 10 -k RTR
+ -t 0.556838879 -s 28 -d -1 -p cbr -e 512 -c 2 -a 0 -i 11 -k AGT 
- -t 0.556838879 -s 28 -d -1 -p cbr -e 512 -c 2 -a 0 -i 11 -k AGT
h -t 0.556838879 -s 28 -d -1 -p cbr -e 512 -c 2 -a 0 -i 11 -k AGT
+ -t 0.627186592 -s 10 -d -1 -p message -e 32 -c 2 -a 0 -i 12 -k RTR 
- -t 0.627186592 -s 10 -d -1 -p message -e 32 -c 2 -a 0 -i 12 -k RTR
h -t 0.627186592 -s 10 -d -1 -p message -e 32 -c 2 -a 0 -i 12 -k RTR
+ -t 0.627321592 -s 10 -d -1 -p message -e 90 -c 2 -a 0 -i 12 -k MAC 
- -t 0.627321592 -s 10 -d -1 -p message -e 90 -c 2 -a 0 -i 12 -k MAC
h -t 0.627321592 -s 10 -d -1 -p message -e 90 -c 2 -a 0 -i 12 -k MAC
r -t 0.628041807 -s 7 -d -1 -p message -e 32 -c 2 -a 0 -i 12 -k MAC
r -t 0.628041821 -s 19 -d -1 -p message -e 32 -c 2 -a 0 -i 12 -k MAC
r -t 0.628041925 -s 20 -d -1 -p message -e 32 -c 2 -a 0 -i 12 -k MAC
r -t 0.628042050 -s 25 -d -1 -p message -e 32 -c 2 -a 0 -i 12 -k MAC
r -t 0.628042382 -s 15 -d -1 -p message -e 32 -c 2 -a 0 -i 12 -k MAC
r -t 0.628042638 -s 6 -d -1 -p message -e 32 -c 2 -a 0 -i 12 -k MAC
r -t 0.628042793 -s 28 -d -1 -p message -e 32 -c 2 -a 0 -i 12 -k MAC
r -t 0.628066807 -s 7 -d -1 -p message -e 32 -c 2 -a 0 -i 12 -k RTR
r -t 0.628066821 -s 19 -d -1 -p message -e 32 -c 2 -a 0 -i 12 -k RTR
r -t 0.628066925 -s 20 -d -1 -p message -e 32 -c 2 -a 0 -i 12 -k RTR
r -t 0.628067050 -s 25 -d -1 -p message -e 32 -c 2 -a 0 -i 12 -k RTR
r -t 0.628067382 -s 15 -d -1 -p message -e 32 -c 2 -a 0 -i 12 -k RTR
r -t 0.628067638 -s 6 -d -1 -p message -e 32 -c 2 -a 0 -i 12 -k RTR
r -t 0.628067793 -s 28 -d -1 -p message -e 32 -c 2 -a 0 -i 12 -k RTR
+ -t 0.634670006 -s 6 -d -1 -p message -e 32 -c 2 -a 0 -i 13 -k RTR 
- -t 0.634670006 -s 6 -d -1 -p message -e 32 -c 2 -a 0 -i 13 -k RTR
h -t 0.634670006 -s 6 -d -1 -p message -e 32 -c 2 -a 0 -i 13 -k RTR
+ -t 0.634865006 -s 6 -d -1 -p message -e 90 -c 2 -a 0 -i 13 -k MAC 
- -t 0.634865006 -s 6 -d -1 -p message -e 90 -c 2 -a 0 -i 13 -k MAC
h -t 0.634865006 -s 6 -d -1 -p message -e 90 -c 2 -a 0 -i 13 -k MAC
r -t 0.635585655 -s 15 -d -1 -p message -e 32 -c 2 -a 0 -i 13 -k MAC
r -t 0.635585660 -s 25 -d -1 -p message -e 32 -c 2 -a 0 -i 13 -k MAC
r -t 0.635585663 -s 16 -d -1 -p message -e 32 -c 2 -a 0 -i 13 -k MAC
r -t 0.635585782 -s 20 -d -1 -p message -e 32 -c 2 -a 0 -i 13 -k MAC
r -t 0.635585847 -s 7 -d -1 -p message -e 32 -c 2 -a 0 -i 13 -k MAC
r -t 0.635585883 -s 9 -d -1 -p message -e 32 -c 2 -a 0 -i 13 -k MAC
r -t 0.635586009 -s 28 -d -1 -p message -e 32 -c 2 -a 0 -i 13 -k MAC
r -t 0.635586016 -s 19 -d -1 -p message -e 32 -c 2 -a 0 -i 13 -k MAC
r -t 0.635586052 -s 10 -d -1 -p message -e 32 -c 2 -a 0 -i 13 -k MAC
r -t 0.635610655 -s 15 -d -1 -p message -e 32 -c 2 -a 0 -i 13 -k RTR
r -t 0.635610660 -s 25 -d -1 -p message -e 32 -c 2 -a 0 -i 13 -k RTR
r -t 0.635610663 -s 16 -d -1 -p message -e 32 -c 2 -a 0 -i 13 -k RTR
r -t 0.635610782 -s 20 -d -1 -p message -e 32 -c 2 -a 0 -i 13 -k RTR
r -t 0.635610847 -s 7 -d -1 -p message -e 32 -c 2 -a 0 -i 13 -k RTR
r -t 0.635610883 -s 9 -d -1 -p message -e 32 -c 2 -a 0 -i 13 -k RTR
r -t 0.635611009 -s 28 -d -1 -p message -e 32 -c 2 -a 0 -i 13 -k RTR
r -t 0.635611016 -s 19 -d -1 -p message -e 32 -c 2 -a 0 -i 13 -k RTR
r -t 0.635611052 -s 10 -d -1 -p message -e 32 -c 2 -a 0 -i 13 -k RTR
+ -t 0.705637875 -s 21 -d -1 -p message -e 32 -c 2 -a 0 -i 14 -k RTR 
- -t 0.705637875 -s 21 -d -1 -p message -e 32 -c 2 -a 0 -i 14 -k RTR
h -t 0.705637875 -s 21 -d -1 -p message -e 32 -c 2 -a 0 -i 14 -k RTR
+ -t 0.706012875 -s 21 -d -1 -p message -e 90 -c 2 -a 0 -i 14 -k MAC 
- -t 0.706012875 -s 21 -d -1 -p message -e 90 -c 2 -a 0 -i 14 -k MAC
h -t 0.706012875 -s 21 -d -1 -p message -e 90 -c 2 -a 0 -i 14 -k MAC
r -t 0.706732882 -s 12 -d -1 -p message -e 32 -c 2 -a 0 -i 14 -k MAC
r -t 0.706733449 -s 11 -d -1 -p message -e 32 -c 2 -a 0 -i 14 -k MAC
r -t 0.706733571 -s 23 -d -1 -p message -e 32 -c 2 -a 0 -i 14 -k MAC
r -t 0.706734044 -s 9 -d -1 -p message -e 32 -c 2 -a 0 -i 14 -k MAC
r -t 0.706757882 -s 12 -d -1 -p message -e 32 -c 2 -a 0 -i 14 -k RTR
r -t 0.706758449 -s 11 -d -1 -p message -e 32 -c 2 -a 0 -i 14 -k RTR
r -t 0.706758571 -s 23 -d -1 -p message -e 32 -c 2 -a 0 -i 14 -k RTR
r -t 0.706759044 -s 9 -d -1 -p message -e 32 -c 2 -a 0 -i 14 -k RTR
+ -t 0.821435127 -s 23 -d -1 -p message -e 32 -c 2 -a 0 -i 15 -k RTR 
- -t 0.821435127 -s 23 -d -1 -p message -e 32 -c 2 -a 0 -i 15 -k RTR
h -t 0.821435127 -s 23 -d -1 -p message -e 32 -c 2 -a 0 -i 15 -k RTR
+ -t 0.821550127 -s 23 -d -1 -p message -e 90 -c 2 -a 0 -i 15 -k MAC 
- -t 0.821550127 -s 23 -d -1 -p message -e 90 -c 2 -a 0 -i 15 -k MAC
h -t 0.821550127 -s 23 -d -1 -p message -e 90 -c 2 -a 0 -i 15 -k MAC
r -t 0.822270676 -s 11 -d -1 -p message -e 32 -c 2 -a 0 -i 15 -k MAC
r -t 0.822270823 -s 21 -d -1 -p message -e 32 -c 2 -a 0 -i 15 -k MAC
r -t 0.822270825 -s 12 -d -1 -p message -e 32 -c 2 -a 0 -i 15 -k MAC
r -t 0.822295676 -s 11 -d -1 -p message -e 32 -c 2 -a 0 -i 15 -k RTR
r -t 0.822295823 -s 21 -d -1 -p message -e 32 -c 2 -a 0 -i 15 -k RTR
r -t 0.822295825 -s 12 -d -1 -p message -e 32 -c 2 -a 0 -i 15 -k RTR
+ -t 0.848147771 -s 17 -d -1 -p message -e 32 -c 2 -a 0 -i 16 -k RTR 
- -t 0.848147771 -s 17 -d -1 -p message -e 32 -c 2 -a 0 -i 16 -k RTR
h -t 0.848147771 -s 17 -d -1 -p message -e 32 -c 2 -a 0 -i 16 -k RTR
+ -t 0.848382771 -s 17 -d -1 -p message -e 90 -c 2 -a 0 -i 16 -k MAC 
- -t 0.848382771 -s 17 -d -1 -p message -e 90 -c 2 -a 0 -i 16 -k MAC
h -t 0.848382771 -s 17 -d -1 -p message -e 90 -c 2 -a 0 -i 16 -k MAC
r -t 0.849103125 -s 2 -d -1 -p message -e 32 -c 2 -a 0 -i 16 -k MAC
r -t 0.849103303 -s 8 -d -1 -p message -e 32 -c 2 -a 0 -i 16 -k MAC
r -t 0.849103464 -s 0 -d -1 -p message -e 32 -c 2 -a 0 -i 16 -k MAC
r -t 0.849103558 -s 4 -d -1 -p message -e 32 -c 2 -a 0 -i 16 -k MAC
r -t 0.849103889 -s 29 -d -1 -p message -e 32 -c 2 -a 0 -i 16 -k MAC
r -t 0.849104103 -s 22 -d -1 -p message -e 32 -c 2 -a 0 -i 16 -k MAC
r -t 0.849128125 -s 2 -d -1 -p message -e 32 -c 2 -a 0 -i 16 -k RTR
r -t 0.849128303 -s 8 -d -1 -p message -e 32 -c 2 -a 0 -i 16 -k RTR
r -t 0.849128464 -s 0 -d -1 -p message -e 32 -c 2 -a 0 -i 16 -k RTR
r -t 0.849128558 -s 4 -d -1 -p message -e 32 -c 2 -a 0 -i 16 -k RTR
r -t 0.849128889 -s 29 -d -1 -p message -e 32 -c 2 -a 0 -i 16 -k RTR
r -t 0.849129103 -s 22 -d -1 -p message -e 32 -c 2 -a 0 -i 16 -k RTR
+ -t 0.882674688 -s 4 -d -1 -p message -e 32 -c 2 -a 0 -i 17 -k RTR 
- -t 0.882674688 -s 4 -d -1 -p message -e 32 -c 2 -a 0 -i 17 -k RTR
h -t 0.882674688 -s 4 -d -1 -p message -e 32 -c 2 -a 0 -i 17 -k RTR
+ -t 0.882909688 -s 4 -d -1 -p message -e 90 -c 2 -a 0 -i 17 -k MAC 
- -t 0.882909688 -s 4 -d -1 -p message -e 90 -c 2 -a 0 -i 17 -k MAC
h -t 0.882909688 -s 4 -d -1 -p message -e 90 -c 2 -a 0 -i 17 -k MAC
r -t 0.883630173 -s 2 -d -1 -p message -e 32 -c 2 -a 0 -i 17 -k MAC
r -t 0.883630474 -s 17 -d -1 -p message -e 32 -c 2 -a 0 -i 17 -k MAC
r -t 0.883630582 -s 0 -d -1 -p message -e 32 -c 2 -a 0 -i 17 -k MAC
r -t 0.883630646 -s 1 -d -1 -p message -e 32 -c 2 -a 0 -i 17 -k MAC
r -t 0.883630820 -s 8 -d -1 -p message -e 32 -c 2 -a 0 -i 17 -k MAC
r -t 0.883630866 -s 13 -d -1 -p message -e 32 -c 2 -a 0 -i 17 -k MAC
r -t 0.883630889 -s 14 -d -1 -p message -e 32 -c 2 -a 0 -i 17 -k MAC
r -t 0.883630962 -s 18 -d -1 -p message -e 32 -c 2 -a 0 -i 17 -k MAC
r -t 0.883630996 -s 29 -d -1 -p message -e 32 -c 2 -a 0 -i 17 -k MAC
r -t 0.883655173 -s 2 -d -1 -p message -e 32 -c 2 -a 0 -i 17 -k RTR
r -t 0.883655474 -s 17 -d -1 -p message -e 32 -c 2 -a 0 -i 17 -k RTR
r -t 0.883655582 -s 0 -d -1 -p message -e 32 -c 2 -a 0 -i 17 -k RTR
r -t 0.883655646 -s 1 -d -1 -p message -e 32 -c 2 -a 0 -i 17 -k RTR
r -t 0.883655820 -s 8 -d -1 -p message -e 32 -c 2 -a 0 -i 17 -k RTR
r -t 0.883655866 -s 13 -d -1 -p message -e 32 -c 2 -a 0 -i 17 -k RTR
r -t 0.883655889 -s 14 -d -1 -p message -e 32 -c 2 -a 0 -i 17 -k RTR
r -t 0.883655962 -s 18 -d -1 -p message -e 32 -c 2 -a 0 -i 17 -k RTR
r -t 0.883655996 -s 29 -d -1 -p message -e 32 -c 2 -a 0 -i 17 -k RTR
+ -t 0.935449221 -s 25 -d -1 -p message -e 32 -c 2 -a 0 -i 18 -k RTR 
- -t 0.935449221 -s 25 -d -1 -p message -e 32 -c 2 -a 0 -i 18 -k RTR
h -t 0.935449221 -s 25 -d -1 -p message -e 32 -c 2 -a 0 -i 18 -k RTR
+ -t 0.935884221 -s 25 -d -1 -p message -e 90 -c 2 -a 0 -i 18 -k MAC 
- -t 0.935884221 -s 25 -d -1 -p message -e 90 -c 2 -a 0 -i 18 -k MAC
h -t 0.935884221 -s 25 -d -1 -p message -e 90 -c 2 -a 0 -i 18 -k MAC
r -t 0.936604353 -s 20 -d -1 -p message -e 32 -c 2 -a 0 -i 18 -k MAC
r -t 0.936604468 -s 7 -d -1 -p message -e 32 -c 2 -a 0 -i 18 -k MAC
r -t 0.936604581 -s 19 -d -1 -p message -e 32 -c 2 -a 0 -i 18 -k MAC
r -t 0.936604587 -s 15 -d -1 -p message -e 32 -c 2 -a 0 -i 18 -k MAC
r -t 0.936604678 -s 10 -d -1 -p message -e 32 -c 2 -a 0 -i 18 -k MAC
r -t 0.936604875 -s 6 -d -1 -p message -e 32 -c 2 -a 0 -i 18 -k MAC
r -t 0.936605050 -s 28 -d -1 -p message -e 32 -c 2 -a 0 -i 18 -k MAC
r -t 0.936605252 -s 16 -d -1 -p message -e 32 -c 2 -a 0 -i 18 -k MAC
r -t 0.936605455 -s 9 -d -1 -p message -e 32 -c 2 -a 0 -i 18 -k MAC
r -t 0.936629353 -s 20 -d -1 -p message -e 32 -c 2 -a 0 -i 18 -k RTR
r -t 0.936629468 -s 7 -d -1 -p message -e 32 -c 2 -a 0 -i 18 -k RTR
r -t 0.936629581 -s 19 -d -1 -p message -e 32 -c 2 -a 0 -i 18 -k RTR
r -t 0.936629587 -s 15 -d -1 -p message -e 32 -c 2 -a 0 -i 18 -k RTR
r -t 0.936629678 -s 10 -d -1 -p message -e 32 -c 2 -a 0 -i 18 -k RTR
r -t 0.936629875 -s 6 -d -1 -p message -e 32 -c 2 -a 0 -i 18 -k RTR
r -t 0.936630050 -s 28 -d -1 -p message -e 32 -c 2 -a 0 -i 18 -k RTR
r -t 0.936630252 -s 16 -d -1 -p message -e 32 -c 2 -a 0 -i 18 -k RTR
r -t 0.936630455 -s 9 -d -1 -p message -e 32 -c 2 -a 0 -i 18 -k RTR
+ -t 1.039009780 -s 24 -d -1 -p message -e 32 -c 2 -a 0 -i 19 -k RTR 
- -t 1.039009780 -s 24 -d -1 -p message -e 32 -c 2 -a 0 -i 19 -k RTR
h -t 1.039009780 -s 24 -d -1 -p message -e 32 -c 2 -a 0 -i 19 -k RTR
+ -t 1.039404780 -s 24 -d -1 -p message -e 90 -c 2 -a 0 -i 19 -k MAC 
- -t 1.039404780 -s 24 -d -1 -p message -e 90 -c 2 -a 0 -i 19 -k MAC
h -t 1.039404780 -s 24 -d -1 -p message -e 90 -c 2 -a 0 -i 19 -k MAC
r -t 1.040125537 -s 16 -d -1 -p message -e 32 -c 2 -a 0 -i 19 -k MAC
r -t 1.040125747 -s 28 -d -1 -p message -e 32 -c 2 -a 0 -i 19 -k MAC
r -t 1.040126070 -s 15 -d -1 -p message -e 32 -c 2 -a 0 -i 19 -k MAC
r -t 1.040150537 -s 16 -d -1 -p message -e 32 -c 2 -a 0 -i 19 -k RTR
r -t 1.040150747 -s 28 -d -1 -p message -e 32 -c 2 -a 0 -i 19 -k RTR
r -t 1.040151070 -s 15 -d -1 -p message -e 32 -c 2 -a 0 -i 19 -k RTR
+ -t 1.119657716 -s 1 -d -1 -p message -e 32 -c 2 -a 0 -i 20 -k RTR 
- -t 1.119657716 -s 1 -d -1 -p message -e 32 -c 2 -a 0 -i 20 -k RTR
h -t 1.119657716 -s 1 -d -1 -p message -e 32 -c 2 -a 0 -i 20 -k RTR
+ -t 1.119832716 -s 1 -d -1 -p message -e 90 -c 2 -a 0 -i 20 -k MAC 
- -t 1.119832716 -s 1 -d -1 -p message -e 90 -c 2 -a 0 -i 20 -k MAC
h -t 1.119832716 -s 1 -d -1 -p message -e 90 -c 2 -a 0 -i 20 -k MAC
r -t 1.120553055 -s 14 -d -1 -p message -e 32 -c 2 -a 0 -i 20 -k MAC
r -t 1.120553362 -s 13 -d -1 -p message -e 32 -c 2 -a 0 -i 20 -k MAC
r -t 1.120553400 -s 5 -d -1 -p message -e 32 -c 2 -a 0 -i 20 -k MAC
r -t 1.120553514 -s 18 -d -1 -p message -e 32 -c 2 -a 0 -i 20 -k MAC
r -t 1.120553674 -s 4 -d -1 -p message -e 32 -c 2 -a 0 -i 20 -k MAC
r -t 1.120578055 -s 14 -d -1 -p message -e 32 -c 2 -a 0 -i 20 -k RTR
r -t 1.120578362 -s 13 -d -1 -p message -e 32 -c 2 -a 0 -i 20 -k RTR
r -t 1.120578400 -s 5 -d -1 -p message -e 32 -c 2 -a 0 -i 20 -k RTR
r -t 1.120578514 -s 18 -d -1 -p message -e 32 -c 2 -a 0 -i 20 -k RTR
r -t 1.120578674 -s 4 -d -1 -p message -e 32 -c 2 -a 0 -i 20 -k RTR
+ -t 1.277890258 -s 9 -d -1 -p message -e 32 -c 2 -a 0 -i 21 -k RTR 
- -t 1.277890258 -s 9 -d -1 -p message -e 32 -c 2 -a 0 -i 21 -k RTR
h -t 1.277890258 -s 9 -d -1 -p message -e 32 -c 2 -a 0 -i 21 -k RTR
+ -t 1.278565258 -s 9 -d -1 -p message -e 90 -c 2 -a 0 -i 21 -k MAC 
- -t 1.278565258 -s 9 -d -1 -p message -e 90 -c 2 -a 0 -i 21 -k MAC
h -t 1.278565258 -s 9 -d -1 -p message -e 90 -c 2 -a 0 -i 21 -k MAC
r -t 1.279286135 -s 6 -d -1 -p message -e 32 -c 2 -a 0 -i 21 -k MAC
r -t 1.279286278 -s 18 -d -1 -p message -e 32 -c 2 -a 0 -i 21 -k MAC
r -t 1.279286422 -s 12 -d -1 -p message -e 32 -c 2 -a 0 -i 21 -k MAC
r -t 1.279286428 -s 21 -d -1 -p message -e 32 -c 2 -a 0 -i 21 -k MAC
r -t 1.279286493 -s 25 -d -1 -p message -e 32 -c 2 -a 0 -i 21 -k MAC
r -t 1.279286516 -s 7 -d -1 -p message -e 32 -c 2 -a 0 -i 21 -k MAC
r -t 1.279286550 -s 20 -d -1 -p message -e 32 -c 2 -a 0 -i 21 -k MAC
r -t 1.279311135 -s 6 -d -1 -p message -e 32 -c 2 -a 0 -i 21 -k RTR
r -t 1.279311278 -s 18 -d -1 -p message -e 32 -c 2 -a 0 -i 21 -k RTR
r -t 1.279311422 -s 12 -d -1 -p message -e 32 -c 2 -a 0 -i 21 -k RTR
r -t 1.279311428 -s 21 -d -1 -p message -e 32 -c 2 -a 0 -i 21 -k RTR
r -t 1.279311493 -s 25 -d -1 -p message -e 32 -c 2 -a 0 -i 21 -k RTR
r -t 1.279311516 -s 7 -d -1 -p message -e 32 -c 2 -a 0 -i 21 -k RTR
r -t 1.279311550 -s 20 -d -1 -p message -e 32 -c 2 -a 0 -i 21 -k RTR
+ -t 1.281327089 -s 14 -d -1 -p message -e 32 -c 2 -a 0 -i 22 -k RTR 
- -t 1.281327089 -s 14 -d -1 -p message -e 32 -c 2 -a 0 -i 22 -k RTR
h -t 1.281327089 -s 14 -d -1 -p message -e 32 -c 2 -a 0 -i 22 -k RTR