n -t * -s 0  -x 200.25 -y 597.71000000000004 -Z 0 -z 100  -v circle -c black
n -t * -s 1  -x 178.22999999999999 -y 602.62 -Z 0 -z 100  -v circle -c black
n -t * -s 2  -x 188.61000000000001 -y 91.290000000000006 -Z 0 -z 100  -v circle -c black
n -t * -s 3  -x 576.28999999999996 -y 720.28999999999996 -Z 0 -z 100  -v circle -c black
n -t * -s 4  -x 1138.73 -y 612.95000000000005 -Z 0 -z 100  -v circle -c black
n -t * -s 5  -x 1112.5999999999999 -y 989.29999999999995 -Z 0 -z 100  -v circle -c black
n -t * -s 6  -x 279.68000000000001 -y 38.810000000000002 -Z 0 -z 100  -v circle -c black
n -t * -s 7  -x 738.66999999999996 -y 159.16999999999999 -Z 0 -z 100  -v circle -c black
n -t * -s 8  -x 102.51000000000001 -y 299.94 -Z 0 -z 100  -v circle -c black
n -t * -s 9  -x 928.71000000000004 -y 1286.4100000000001 -Z 0 -z 100  -v circle -c black
n -t * -s 10  -x 336.85000000000002 -y 592.28999999999996 -Z 0 -z 100  -v circle -c black
n -t * -s 11  -x 891.58000000000004 -y 514.35000000000002 -Z 0 -z 100  -v circle -c black
n -t * -s 12  -x 644.03999999999996 -y 1151.25 -Z 0 -z 100  -v circle -c black
n -t * -s 13  -x 272.49000000000001 -y 1357.6099999999999 -Z 0 -z 100  -v circle -c black
n -t * -s 14  -x 403.25 -y 1079.0699999999999 -Z 0 -z 100  -v circle -c black
n -t * -s 15  -x 519.76999999999998 -y 1140.53 -Z 0 -z 100  -v circle -c black
n -t * -s 16  -x 892.97000000000003 -y 226.16999999999999 -Z 0 -z 100  -v circle -c black
n -t * -s 17  -x 482.25 -y 309.81999999999999 -Z 0 -z 100  -v circle -c black
n -t * -s 18  -x 1004.12 -y 548.08000000000004 -Z 0 -z 100  -v circle -c black
n -t * -s 19  -x 129.91999999999999 -y 660.10000000000002 -Z 0 -z 100  -v circle -c black
n -t * -s 20  -x 1305.53 -y 677.16999999999996 -Z 0 -z 100  -v circle -c black
n -t * -s 21  -x 261.43000000000001 -y 112.68000000000001 -Z 0 -z 100  -v circle -c black
n -t * -s 22  -x 1107.5999999999999 -y 1104.5599999999999 -Z 0 -z 100  -v circle -c black
n -t * -s 23  -x 693.21000000000004 -y 747.09000000000003 -Z 0 -z 100  -v circle -c black
n -t * -s 24  -x 317.81999999999999 -y 273.18000000000001 -Z 0 -z 100  -v circle -c black
n -t * -s 25  -x 26.890000000000001 -y 875.87 -Z 0 -z 100  -v circle -c black
n -t * -s 26  -x 512.73000000000002 -y 238.66999999999999 -Z 0 -z 100  -v circle -c black
n -t * -s 27  -x 0 -y 0 -Z 0 -z 100  -v circle -c black
n -t * -s 28  -x 0 -y 1000 -Z 0 -z 100  -v circle -c black
n -t * -s 29  -x 1000 -y 0 -Z 0 -z 100  -v circle -c black
V -t * -v 1.0a5 -a 0
W -t * -x 1700 -y 1700
A -t * -n 1 -p 0 -o 0x7fffffff -c 30 -a 1
A -t * -h 1 -m 1073741823 -s 0
n -t 0.000000 -s 0 -x 200.250000 -y 597.710000 -U 0.000000 -V 0.000000 -T 0.000000
n -t 0.000000 -s 1 -x 178.230000 -y 602.620000 -U 0.000000 -V 0.000000 -T 0.000000
n -t 0.000000 -s 2 -x 188.610000 -y 91.290000 -U 0.000000 -V 0.000000 -T 0.000000
n -t 0.000000 -s 3 -x 576.290000 -y 720.290000 -U 0.000000 -V 0.000000 -T 0.000000
n -t 0.000000 -s 4 -x 1138.730000 -y 612.950000 -U 0.000000 -V 0.000000 -T 0.000000
n -t 0.000000 -s 5 -x 1112.600000 -y 989.300000 -U 0.000000 -V 0.000000 -T 0.000000
n -t 0.000000 -s 6 -x 279.680000 -y 38.810000 -U 0.000000 -V 0.000000 -T 0.000000
n -t 0.000000 -s 7 -x 738.670000 -y 159.170000 -U 0.000000 -V 0.000000 -T 0.000000
n -t 0.000000 -s 8 -x 102.510000 -y 299.940000 -U 0.000000 -V 0.000000 -T 0.000000
n -t 0.000000 -s 9 -x 928.710000 -y 1286.410000 -U 0.000000 -V 0.000000 -T 0.000000
n -t 0.000000 -s 10 -x 336.850000 -y 592.290000 -U 0.000000 -V 0.000000 -T 0.000000
n -t 0.000000 -s 11 -x 891.580000 -y 514.350000 -U 0.000000 -V 0.000000 -T 0.000000
n -t 0.000000 -s 12 -x 644.040000 -y 1151.250000 -U 0.000000 -V 0.000000 -T 0.000000
n -t 0.000000 -s 13 -x 272.490000 -y 1357.610000 -U 0.000000 -V 0.000000 -T 0.000000
n -t 0.000000 -s 14 -x 403.250000 -y 1079.070000 -U 0.000000 -V 0.000000 -T 0.000000
n -t 0.000000 -s 15 -x 519.770000 -y 1140.530000 -U 0.000000 -V 0.000000 -T 0.000000
n -t 0.000000 -s 16 -x 892.970000 -y 226.170000 -U 0.000000 -V 0.000000 -T 0.000000
n -t 0.000000 -s 17 -x 482.250000 -y 309.820000 -U 0.000000 -V 0.000000 -T 0.000000
n -t 0.000000 -s 18 -x 1004.120000 -y 548.080000 -U 0.000000 -V 0.000000 -T 0.000000
n -t 0.000000 -s 19 -x 129.920000 -y 660.100000 -U 0.000000 -V 0.000000 -T 0.000000
n -t 0.000000 -s 20 -x 1305.530000 -y 677.170000 -U 0.000000 -V 0.000000 -T 0.000000
n -t 0.000000 -s 21 -x 261.430000 -y 112.680000 -U 0.000000 -V 0.000000 -T 0.000000
n -t 0.000000 -s 22 -x 1107.600000 -y 1104.560000 -U 0.000000 -V 0.000000 -T 0.000000
n -t 0.000000 -s 23 -x 693.210000 -y 747.090000 -U 0.000000 -V 0.000000 -T 0.000000
n -t 0.000000 -s 24 -x 317.820000 -y 273.180000 -U 0.000000 -V 0.000000 -T 0.000000
n -t 0.000000 -s 25 -x 26.890000 -y 875.870000 -U 0.000000 -V 0.000000 -T 0.000000
n -t 0.000000 -s 26 -x 512.730000 -y 238.670000 -U 0.000000 -V 0.000000 -T 0.000000
n -t 0.000000 -s 0 -x 200.250000 -y 597.710000 -U 0.000000 -V 0.000000 -T 0.000000
n -t 0.000000 -s 1 -x 178.230000 -y 602.620000 -U 0.000000 -V 0.000000 -T 0.000000
+ -t 0.003091411 -s 0 -d -1 -p message -e 32 -c 2 -a 0 -i 0 -k RTR 
- -t 0.003091411 -s 0 -d -1 -p message -e 32 -c 2 -a 0 -i 0 -k RTR
h -t 0.003091411 -s 0 -d -1 -p message -e 32 -c 2 -a 0 -i 0 -k RTR
+ -t 0.003466411 -s 0 -d -1 -p message -e 90 -c 2 -a 0 -i 0 -k MAC 
- -t 0.003466411 -s 0 -d -1 -p message -e 90 -c 2 -a 0 -i 0 -k MAC
h -t 0.003466411 -s 0 -d -1 -p message -e 90 -c 2 -a 0 -i 0 -k MAC
r -t 0.004186486 -s 1 -d -1 -p message -e 32 -c 2 -a 0 -i 0 -k MAC
r -t 0.004186724 -s 19 -d -1 -p message -e 32 -c 2 -a 0 -i 0 -k MAC
r -t 0.004186866 -s 10 -d -1 -p message -e 32 -c 2 -a 0 -i 0 -k MAC
r -t 0.004187455 -s 8 -d -1 -p message -e 32 -c 2 -a 0 -i 0 -k MAC
r -t 0.004187503 -s 25 -d -1 -p message -e 32 -c 2 -a 0 -i 0 -k MAC
r -t 0.004187561 -s 24 -d -1 -p message -e 32 -c 2 -a 0 -i 0 -k MAC
r -t 0.004187729 -s 3 -d -1 -p message -e 32 -c 2 -a 0 -i 0 -k MAC
r -t 0.004211486 -s 1 -d -1 -p message -e 32 -c 2 -a 0 -i 0 -k RTR
r -t 0.004211724 -s 19 -d -1 -p message -e 32 -c 2 -a 0 -i 0 -k RTR
r -t 0.004211866 -s 10 -d -1 -p message -e 32 -c 2 -a 0 -i 0 -k RTR
r -t 0.004212455 -s 8 -d -1 -p message -e 32 -c 2 -a 0 -i 0 -k RTR
r -t 0.004212503 -s 25 -d -1 -p message -e 32 -c 2 -a 0 -i 0 -k RTR
r -t 0.004212561 -s 24 -d -1 -p message -e 32 -c 2 -a 0 -i 0 -k RTR
r -t 0.004212729 -s 3 -d -1 -p message -e 32 -c 2 -a 0 -i 0 -k RTR
+ -t 0.037458776 -s 2 -d -1 -p message -e 32 -c 2 -a 0 -i 1 -k RTR 
- -t 0.037458776 -s 2 -d -1 -p message -e 32 -c 2 -a 0 -i 1 -k RTR
h -t 0.037458776 -s 2 -d -1 -p message -e 32 -c 2 -a 0 -i 1 -k RTR
+ -t 0.037813776 -s 2 -d -1 -p message -e 90 -c 2 -a 0 -i 1 -k MAC 
- -t 0.037813776 -s 2 -d -1 -p message -e 90 -c 2 -a 0 -i 1 -k MAC
h -t 0.037813776 -s 2 -d -1 -p message -e 90 -c 2 -a 0 -i 1 -k MAC
r -t 0.038534029 -s 21 -d -1 -p message -e 32 -c 2 -a 0 -i 1 -k MAC
r -t 0.038534126 -s 6 -d -1 -p message -e 32 -c 2 -a 0 -i 1 -k MAC
r -t 0.038534474 -s 27 -d -1 -p message -e 32 -c 2 -a 0 -i 1 -k MAC
r -t 0.038534520 -s 24 -d -1 -p message -e 32 -c 2 -a 0 -i 1 -k MAC
r -t 0.038534528 -s 8 -d -1 -p message -e 32 -c 2 -a 0 -i 1 -k MAC
r -t 0.038534963 -s 26 -d -1 -p message -e 32 -c 2 -a 0 -i 1 -k MAC
r -t 0.038534996 -s 17 -d -1 -p message -e 32 -c 2 -a 0 -i 1 -k MAC
r -t 0.038559029 -s 21 -d -1 -p message -e 32 -c 2 -a 0 -i 1 -k RTR
r -t 0.038559126 -s 6 -d -1 -p message -e 32 -c 2 -a 0 -i 1 -k RTR
r -t 0.038559474 -s 27 -d -1 -p message -e 32 -c 2 -a 0 -i 1 -k RTR
r -t 0.038559520 -s 24 -d -1 -p message -e 32 -c 2 -a 0 -i 1 -k RTR
r -t 0.038559528 -s 8 -d -1 -p message -e 32 -c 2 -a 0 -i 1 -k RTR
r -t 0.038559963 -s 26 -d -1 -p message -e 32 -c 2 -a 0 -i 1 -k RTR
r -t 0.038559996 -s 17 -d -1 -p message -e 32 -c 2 -a 0 -i 1 -k RTR
+ -t 0.087462768 -s 13 -d -1 -p message -e 32 -c 2 -a 0 -i 2 -k RTR 
- -t 0.087462768 -s 13 -d -1 -p message -e 32 -c 2 -a 0 -i 2 -k RTR
h -t 0.087462768 -s 13 -d -1 -p message -e 32 -c 2 -a 0 -i 2 -k RTR
+ -t 0.087757768 -s 13 -d -1 -p message -e 90 -c 2 -a 0 -i 2 -k MAC 
- -t 0.087757768 -s 13 -d -1 -p message -e 90 -c 2 -a 0 -i 2 -k MAC
h -t 0.087757768 -s 13 -d -1 -p message -e 90 -c 2 -a 0 -i 2 -k MAC
r -t 0.088478794 -s 14 -d -1 -p message -e 32 -c 2 -a 0 -i 2 -k MAC
r -t 0.088478865 -s 15 -d -1 -p message -e 32 -c 2 -a 0 -i 2 -k MAC
r -t 0.088503794 -s 14 -d -1 -p message -e 32 -c 2 -a 0 -i 2 -k RTR
r -t 0.088503865 -s 15 -d -1 -p message -e 32 -c 2 -a 0 -i 2 -k RTR
+ -t 0.177365656 -s 3 -d -1 -p message -e 32 -c 2 -a 0 -i 3 -k RTR 
- -t 0.177365656 -s 3 -d -1 -p message -e 32 -c 2 -a 0 -i 3 -k RTR
h -t 0.177365656 -s 3 -d -1 -p message -e 32 -c 2 -a 0 -i 3 -k RTR
+ -t 0.177560656 -s 3 -d -1 -p message -e 90 -c 2 -a 0 -i 3 -k MAC 
- -t 0.177560656 -s 3 -d -1 -p message -e 90 -c 2 -a 0 -i 3 -k MAC
h -t 0.177560656 -s 3 -d -1 -p message -e 90 -c 2 -a 0 -i 3 -k MAC
r -t 0.178281056 -s 23 -d -1 -p message -e 32 -c 2 -a 0 -i 3 -k MAC
r -t 0.178281561 -s 10 -d -1 -p message -e 32 -c 2 -a 0 -i 3 -k MAC
r -t 0.178281911 -s 11 -d -1 -p message -e 32 -c 2 -a 0 -i 3 -k MAC
r -t 0.178281974 -s 0 -d -1 -p message -e 32 -c 2 -a 0 -i 3 -k MAC
r -t 0.178281984 -s 14 -d -1 -p message -e 32 -c 2 -a 0 -i 3 -k MAC
r -t 0.178306056 -s 23 -d -1 -p message -e 32 -c 2 -a 0 -i 3 -k RTR
r -t 0.178306561 -s 10 -d -1 -p message -e 32 -c 2 -a 0 -i 3 -k RTR
r -t 0.178306911 -s 11 -d -1 -p message -e 32 -c 2 -a 0 -i 3 -k RTR
r -t 0.178306974 -s 0 -d -1 -p message -e 32 -c 2 -a 0 -i 3 -k RTR
r -t 0.178306984 -s 14 -d -1 -p message -e 32 -c 2 -a 0 -i 3 -k RTR
+ -t 0.191634337 -s 19 -d -1 -p message -e 32 -c 2 -a 0 -i 4 -k RTR 
- -t 0.191634337 -s 19 -d -1 -p message -e 32 -c 2 -a 0 -i 4 -k RTR
h -t 0.191634337 -s 19 -d -1 -p message -e 32 -c 2 -a 0 -i 4 -k RTR
+ -t 0.191889337 -s 19 -d -1 -p message -e 90 -c 2 -a 0 -i 4 -k MAC 
- -t 0.191889337 -s 19 -d -1 -p message -e 90 -c 2 -a 0 -i 4 -k MAC
h -t 0.191889337 -s 19 -d -1 -p message -e 90 -c 2 -a 0 -i 4 -k MAC
r -t 0.192609587 -s 1 -d -1 -p message -e 32 -c 2 -a 0 -i 4 -k MAC
r -t 0.192609650 -s 0 -d -1 -p message -e 32 -c 2 -a 0 -i 4 -k MAC
r -t 0.192610063 -s 10 -d -1 -p message -e 32 -c 2 -a 0 -i 4 -k MAC
r -t 0.192610134 -s 25 -d -1 -p message -e 32 -c 2 -a 0 -i 4 -k MAC
r -t 0.192610541 -s 8 -d -1 -p message -e 32 -c 2 -a 0 -i 4 -k MAC
r -t 0.192610550 -s 28 -d -1 -p message -e 32 -c 2 -a 0 -i 4 -k MAC
r -t 0.192634587 -s 1 -d -1 -p message -e 32 -c 2 -a 0 -i 4 -k RTR
r -t 0.192634650 -s 0 -d -1 -p message -e 32 -c 2 -a 0 -i 4 -k RTR
r -t 0.192635063 -s 10 -d -1 -p message -e 32 -c 2 -a 0 -i 4 -k RTR
r -t 0.192635134 -s 25 -d -1 -p message -e 32 -c 2 -a 0 -i 4 -k RTR
r -t 0.192635541 -s 8 -d -1 -p message -e 32 -c 2 -a 0 -i 4 -k RTR
r -t 0.192635550 -s 28 -d -1 -p message -e 32 -c 2 -a 0 -i 4 -k RTR
+ -t 0.234603229 -s 15 -d -1 -p message -e 32 -c 2 -a 0 -i 5 -k RTR 
- -t 0.234603229 -s 15 -d -1 -p message -e 32 -c 2 -a 0 -i 5 -k RTR
h -t 0.234603229 -s 15 -d -1 -p message -e 32 -c 2 -a 0 -i 5 -k RTR
+ -t 0.234898229 -s 15 -d -1 -p message -e 90 -c 2 -a 0 -i 5 -k MAC 
- -t 0.234898229 -s 15 -d -1 -p message -e 90 -c 2 -a 0 -i 5 -k MAC
h -t 0.234898229 -s 15 -d -1 -p message -e 90 -c 2 -a 0 -i 5 -k MAC
r -t 0.235618645 -s 12 -d -1 -p message -e 32 -c 2 -a 0 -i 5 -k MAC
r -t 0.235618669 -s 14 -d -1 -p message -e 32 -c 2 -a 0 -i 5 -k MAC
r -t 0.235619326 -s 13 -d -1 -p message -e 32 -c 2 -a 0 -i 5 -k MAC
r -t 0.235643645 -s 12 -d -1 -p message -e 32 -c 2 -a 0 -i 5 -k RTR
r -t 0.235643669 -s 14 -d -1 -p message -e 32 -c 2 -a 0 -i 5 -k RTR
r -t 0.235644326 -s 13 -d -1 -p message -e 32 -c 2 -a 0 -i 5 -k RTR
+ -t 0.333839210 -s 12 -d -1 -p message -e 32 -c 2 -a 0 -i 6 -k RTR 
- -t 0.333839210 -s 12 -d -1 -p message -e 32 -c 2 -a 0 -i 6 -k RTR
h -t 0.333839210 -s 12 -d -1 -p message -e 32 -c 2 -a 0 -i 6 -k RTR
+ -t 0.333994210 -s 12 -d -1 -p message -e 90 -c 2 -a 0 -i 6 -k MAC 
- -t 0.333994210 -s 12 -d -1 -p message -e 90 -c 2 -a 0 -i 6 -k MAC
h -t 0.333994210 -s 12 -d -1 -p message -e 90 -c 2 -a 0 -i 6 -k MAC
r -t 0.334714626 -s 15 -d -1 -p message -e 32 -c 2 -a 0 -i 6 -k MAC
r -t 0.334715048 -s 14 -d -1 -p message -e 32 -c 2 -a 0 -i 6 -k MAC
r -t 0.334715260 -s 9 -d -1 -p message -e 32 -c 2 -a 0 -i 6 -k MAC
r -t 0.334739626 -s 15 -d -1 -p message -e 32 -c 2 -a 0 -i 6 -k RTR
r -t 0.334740048 -s 14 -d -1 -p message -e 32 -c 2 -a 0 -i 6 -k RTR
r -t 0.334740260 -s 9 -d -1 -p message -e 32 -c 2 -a 0 -i 6 -k RTR
+ -t 0.351472650 -s 18 -d -1 -p message -e 32 -c 2 -a 0 -i 7 -k RTR 
- -t 0.351472650 -s 18 -d -1 -p message -e 32 -c 2 -a 0 -i 7 -k RTR
h -t 0.351472650 -s 18 -d -1 -p message -e 32 -c 2 -a 0 -i 7 -k RTR
+ -t 0.351847650 -s 18 -d -1 -p message -e 90 -c 2 -a 0 -i 7 -k MAC 
- -t 0.351847650 -s 18 -d -1 -p message -e 90 -c 2 -a 0 -i 7 -k MAC
h -t 0.351847650 -s 18 -d -1 -p message -e 90 -c 2 -a 0 -i 7 -k MAC
r -t 0.352568042 -s 11 -d -1 -p message -e 32 -c 2 -a 0 -i 7 -k MAC
r -t 0.352568148 -s 4 -d -1 -p message -e 32 -c 2 -a 0 -i 7 -k MAC
r -t 0.352568743 -s 20 -d -1 -p message -e 32 -c 2 -a 0 -i 7 -k MAC
r -t 0.352568785 -s 16 -d -1 -p message -e 32 -c 2 -a 0 -i 7 -k MAC
r -t 0.352568881 -s 23 -d -1 -p message -e 32 -c 2 -a 0 -i 7 -k MAC
r -t 0.352593042 -s 11 -d -1 -p message -e 32 -c 2 -a 0 -i 7 -k RTR
r -t 0.352593148 -s 4 -d -1 -p message -e 32 -c 2 -a 0 -i 7 -k RTR
r -t 0.352593743 -s 20 -d -1 -p message -e 32 -c 2 -a 0 -i 7 -k RTR
r -t 0.352593785 -s 16 -d -1 -p message -e 32 -c 2 -a 0 -i 7 -k RTR
r -t 0.352593881 -s 23 -d -1 -p message -e 32 -c 2 -a 0 -i 7 -k RTR
+ -t 0.436386259 -s 29 -d -1 -p message -e 32 -c 2 -a 0 -i 8 -k RTR 
- -t 0.436386259 -s 29 -d -1 -p message -e 32 -c 2 -a 0 -i 8 -k RTR
h -t 0.436386259 -s 29 -d -1 -p message -e 32 -c 2 -a 0 -i 8 -k RTR
+ -t 0.436701259 -s 29 -d -1 -p message -e 90 -c 2 -a 0 -i 8 -k MAC 
- -t 0.436701259 -s 29 -d -1 -p message -e 90 -c 2 -a 0 -i 8 -k MAC
h -t 0.436701259 -s 29 -d -1 -p message -e 90 -c 2 -a 0 -i 8 -k MAC
r -t 0.437422093 -s 16 -d -1 -p message -e 32 -c 2 -a 0 -i 8 -k MAC
r -t 0.437422279 -s 7 -d -1 -p message -e 32 -c 2 -a 0 -i 8 -k MAC
r -t 0.437447093 -s 16 -d -1 -p message -e 32 -c 2 -a 0 -i 8 -k RTR
r -t 0.437447279 -s 7 -d -1 -p message -e 32 -c 2 -a 0 -i 8 -k RTR
+ -t 0.470117073 -s 8 -d -1 -p message -e 32 -c 2 -a 0 -i 9 -k RTR 
- -t 0.470117073 -s 8 -d -1 -p message -e 32 -c 2 -a 0 -i 9 -k RTR
h -t 0.470117073 -s 8 -d -1 -p message -e 32 -c 2 -a 0 -i 9 -k RTR
+ -t 0.470652073 -s 8 -d -1 -p message -e 90 -c 2 -a 0 -i 9 -k MAC 
- -t 0.470652073 -s 8 -d -1 -p message -e 90 -c 2 -a 0 -i 9 -k MAC
h -t 0.470652073 -s 8 -d -1 -p message -e 90 -c 2 -a 0 -i 9 -k MAC
r -t 0.471372796 -s 24 -d -1 -p message -e 32 -c 2 -a 0 -i 9 -k MAC
r -t 0.471372825 -s 2 -d -1 -p message -e 32 -c 2 -a 0 -i 9 -k MAC
r -t 0.471372892 -s 21 -d -1 -p message -e 32 -c 2 -a 0 -i 9 -k MAC
r -t 0.471373113 -s 1 -d -1 -p message -e 32 -c 2 -a 0 -i 9 -k MAC
r -t 0.471373118 -s 0 -d -1 -p message -e 32 -c 2 -a 0 -i 9 -k MAC
r -t 0.471373125 -s 6 -d -1 -p message -e 32 -c 2 -a 0 -i 9 -k MAC
r -t 0.471373129 -s 27 -d -1 -p message -e 32 -c 2 -a 0 -i 9 -k MAC
r -t 0.471373277 -s 19 -d -1 -p message -e 32 -c 2 -a 0 -i 9 -k MAC
r -t 0.471373322 -s 10 -d -1 -p message -e 32 -c 2 -a 0 -i 9 -k MAC
r -t 0.471373339 -s 17 -d -1 -p message -e 32 -c 2 -a 0 -i 9 -k MAC
r -t 0.471397796 -s 24 -d -1 -p message -e 32 -c 2 -a 0 -i 9 -k RTR
r -t 0.471397825 -s 2 -d -1 -p message -e 32 -c 2 -a 0 -i 9 -k RTR
r -t 0.471397892 -s 21 -d -1 -p message -e 32 -c 2 -a 0 -i 9 -k RTR
r -t 0.471398113 -s 1 -d -1 -p message -e 32 -c 2 -a 0 -i 9 -k RTR
r -t 0.471398118 -s 0 -d -1 -p message -e 32 -c 2 -a 0 -i 9 -k RTR
r -t 0.471398125 -s 6 -d -1 -p message -e 32 -c 2 -a 0 -i 9 -k RTR
r -t 0.471398129 -s 27 -d -1 -p message -e 32 -c 2 -a 0 -i 9 -k RTR
r -t 0.471398277 -s 19 -d -1 -p message -e 32 -c 2 -a 0 -i 9 -k RTR
r -t 0.471398322 -s 10 -d -1 -p message -e 32 -c 2 -a 0 -i 9 -k RTR
r -t 0.471398339 -s 17 -d -1 -p message -e 32 -c 2 -a 0 -i 9 -k RTR
+ -t 0.521504883 -s 22 -d -1 -p message -e 32 -c 2 -a 0 -i 10 -k RTR 
- -t 0.521504883 -s 22 -d -1 -p message -e 32 -c 2 -a 0 -i 10 -k RTR
h -t 0.521504883 -s 22 -d -1 -p message -e 32 -c 2 -a 0 -i 10 -k RTR
+ -t 0.521659883 -s 22 -d -1 -p message -e 90 -c 2 -a 0 -i 10 -k MAC 
- -t 0.521659883 -s 22 -d -1 -p message -e 90 -c 2 -a 0 -i 10 -k MAC
h -t 0.521659883 -s 22 -d -1 -p message -e 90 -c 2 -a 0 -i 10 -k MAC
r -t 0.522380268 -s 5 -d -1 -p message -e 32 -c 2 -a 0 -i 10 -k MAC
r -t 0.522380733 -s 9 -d -1 -p message -e 32 -c 2 -a 0 -i 10 -k MAC
r -t 0.522405268 -s 5 -d -1 -p message -e 32 -c 2 -a 0 -i 10 -k RTR
r -t 0.522405733 -s 9 -d -1 -p message -e 32 -c 2 -a 0 -i 10 -k RTR
+ -t 0.556838879 -s 28 -d -1 -p cbr -e 512 -c 2 -a 0 -i 11 -k AGT 
- -t 0.556838879 -s 28 -d -1 -p cbr -e 512 -c 2 -a 0 -i 11 -k AGT
h -t 0.556838879 -s 28 -d -1 -p cbr -e 512 -c 2 -a 0 -i 11 -k AGT
+ -t 0.627186592 -s 10 -d -1 -p message -e 32 -c 2 -a 0 -i 12 -k RTR 
- -t 0.627186592 -s 10 -d -1 -p message -e 32 -c 2 -a 0 -i 12 -k RTR
h -t 0.627186592 -s 10 -d -1 -p message -e 32 -c 2 -a 0 -i 12 -k RTR
+ -t 0.627321592 -s 10 -d -1 -p message -e 90 -c 2 -a 0 -i 12 -k MAC 
- -t 0.627321592 -s 10 -d -1 -p message -e 90 -c 2 -a 0 -i 12 -k MAC
h -t 0.627321592 -s 10 -d -1 -p message -e 90 -c 2 -a 0 -i 12 -k MAC
r -t 0.628042048 -s 0 -d -1 -p message -e 32 -c 2 -a 0 -i 12 -k MAC
r -t 0.628042122 -s 1 -d -1 -p message -e 32 -c 2 -a 0 -i 12 -k MAC
r -t 0.628042318 -s 19 -d -1 -p message -e 32 -c 2 -a 0 -i 12 -k MAC
r -t 0.628042497 -s 3 -d -1 -p message -e 32 -c 2 -a 0 -i 12 -k MAC
r -t 0.628042651 -s 17 -d -1 -p message -e 32 -c 2 -a 0 -i 12 -k MAC
r -t 0.628042658 -s 24 -d -1 -p message -e 32 -c 2 -a 0 -i 12 -k MAC
r -t 0.628042841 -s 8 -d -1 -p message -e 32 -c 2 -a 0 -i 12 -k MAC
r -t 0.628042887 -s 23 -d -1 -p message -e 32 -c 2 -a 0 -i 12 -k MAC
r -t 0.628042909 -s 26 -d -1 -p message -e 32 -c 2 -a 0 -i 12 -k MAC
r -t 0.628067048 -s 0 -d -1 -p message -e 32 -c 2 -a 0 -i 12 -k RTR
r -t 0.628067122 -s 1 -d -1 -p message -e 32 -c 2 -a 0 -i 12 -k RTR
r -t 0.628067318 -s 19 -d -1 -p message -e 32 -c 2 -a 0 -i 12 -k RTR
r -t 0.628067497 -s 3 -d -1 -p message -e 32 -c 2 -a 0 -i 12 -k RTR
r -t 0.628067651 -s 17 -d -1 -p message -e 32 -c 2 -a 0 -i 12 -k RTR
r -t 0.628067658 -s 24 -d -1 -p message -e 32 -c 2 -a 0 -i 12 -k RTR
r -t 0.628067841 -s 8 -d -1 -p message -e 32 -c 2 -a 0 -i 12 -k RTR
r -t 0.628067887 -s 23 -d -1 -p message -e 32 -c 2 -a 0 -i 12 -k RTR
r -t 0.628067909 -s 26 -d -1 -p message -e 32 -c 2 -a 0 -i 12 -k RTR
+ -t 0.634670006 -s 6 -d -1 -p message -e 32 -c 2 -a 0 -i 13 -k RTR 
- -t 0.634670006 -s 6 -d -1 -p message -e 32 -c 2 -a 0 -i 13 -k RTR
h -t 0.634670006 -s 6 -d -1 -p message -e 32 -c 2 -a 0 -i 13 -k RTR
+ -t 0.634865006 -s 6 -d -1 -p message -e 90 -c 2 -a 0 -i 13 -k MAC 
- -t 0.634865006 -s 6 -d -1 -p message -e 90 -c 2 -a 0 -i 13 -k MAC
h -t 0.634865006 -s 6 -d -1 -p message -e 90 -c 2 -a 0 -i 13 -k MAC
r -t 0.635585260 -s 21 -d -1 -p message -e 32 -c 2 -a 0 -i 13 -k MAC
r -t 0.635585357 -s 2 -d -1 -p message -e 32 -c 2 -a 0 -i 13 -k MAC
r -t 0.635585798 -s 24 -d -1 -p message -e 32 -c 2 -a 0 -i 13 -k MAC
r -t 0.635585948 -s 27 -d -1 -p message -e 32 -c 2 -a 0 -i 13 -k MAC
r -t 0.635586030 -s 26 -d -1 -p message -e 32 -c 2 -a 0 -i 13 -k MAC
r -t 0.635586058 -s 8 -d -1 -p message -e 32 -c 2 -a 0 -i 13 -k MAC
r -t 0.635586134 -s 17 -d -1 -p message -e 32 -c 2 -a 0 -i 13 -k MAC
r -t 0.635610260 -s 21 -d -1 -p message -e 32 -c 2 -a 0 -i 13 -k RTR
r -t 0.635610357 -s 2 -d -1 -p message -e 32 -c 2 -a 0 -i 13 -k RTR
r -t 0.635610798 -s 24 -d -1 -p message -e 32 -c 2 -a 0 -i 13 -k RTR
r -t 0.635610948 -s 27 -d -1 -p message -e 32 -c 2 -a 0 -i 13 -k RTR
r -t 0.635611030 -s 26 -d -1 -p message -e 32 -c 2 -a 0 -i 13 -k RTR
r -t 0.635611058 -s 8 -d -1 -p message -e 32 -c 2 -a 0 -i 13 -k RTR
r -t 0.635611134 -s 17 -d -1 -p message -e 32 -c 2 -a 0 -i 13 -k RTR
+ -t 0.705637875 -s 21 -d -1 -p message -e 32 -c 2 -a 0 -i 14 -k RTR 
- -t 0.705637875 -s 21 -d -1 -p message -e 32 -c 2 -a 0 -i 14 -k RTR
h -t 0.705637875 -s 21 -d -1 -p message -e 32 -c 2 -a 0 -i 14 -k RTR
+ -t 0.706012875 -s 21 -d -1 -p message -e 90 -c 2 -a 0 -i 14 -k MAC 
- -t 0.706012875 -s 21 -d -1 -p message -e 90 -c 2 -a 0 -i 14 -k MAC
h -t 0.706012875 -s 21 -d -1 -p message -e 90 -c 2 -a 0 -i 14 -k MAC
r -t 0.706733128 -s 2 -d -1 -p message -e 32 -c 2 -a 0 -i 14 -k MAC
r -t 0.706733128 -s 6 -d -1 -p message -e 32 -c 2 -a 0 -i 14 -k MAC
r -t 0.706733442 -s 24 -d -1 -p message -e 32 -c 2 -a 0 -i 14 -k MAC
r -t 0.706733693 -s 8 -d -1 -p message -e 32 -c 2 -a 0 -i 14 -k MAC
r -t 0.706733812 -s 26 -d -1 -p message -e 32 -c 2 -a 0 -i 14 -k MAC
r -t 0.706733823 -s 27 -d -1 -p message -e 32 -c 2 -a 0 -i 14 -k MAC
r -t 0.706733861 -s 17 -d -1 -p message -e 32 -c 2 -a 0 -i 14 -k MAC
r -t 0.706758128 -s 2 -d -1 -p message -e 32 -c 2 -a 0 -i 14 -k RTR
r -t 0.706758128 -s 6 -d -1 -p message -e 32 -c 2 -a 0 -i 14 -k RTR
r -t 0.706758442 -s 24 -d -1 -p message -e 32 -c 2 -a 0 -i 14 -k RTR
r -t 0.706758693 -s 8 -d -1 -p message -e 32 -c 2 -a 0 -i 14 -k RTR
r -t 0.706758812 -s 26 -d -1 -p message -e 32 -c 2 -a 0 -i 14 -k RTR
r -t 0.706758823 -s 27 -d -1 -p message -e 32 -c 2 -a 0 -i 14 -k RTR
r -t 0.706758861 -s 17 -d -1 -p message -e 32 -c 2 -a 0 -i 14 -k RTR
+ -t 0.821435127 -s 23 -d -1 -p message -e 32 -c 2 -a 0 -i 15 -k RTR 
- -t 0.821435127 -s 23 -d -1 -p message -e 32 -c 2 -a 0 -i 15 -k RTR
h -t 0.821435127 -s 23 -d -1 -p message -e 32 -c 2 -a 0 -i 15 -k RTR
+ -t 0.821550127 -s 23 -d -1 -p message -e 90 -c 2 -a 0 -i 15 -k MAC 
- -t 0.821550127 -s 23 -d -1 -p message -e 90 -c 2 -a 0 -i 15 -k MAC
h -t 0.821550127 -s 23 -d -1 -p message -e 90 -c 2 -a 0 -i 15 -k MAC
r -t 0.822270527 -s 3 -d -1 -p message -e 32 -c 2 -a 0 -i 15 -k MAC
r -t 0.822271147 -s 11 -d -1 -p message -e 32 -c 2 -a 0 -i 15 -k MAC
r -t 0.822271358 -s 18 -d -1 -p message -e 32 -c 2 -a 0 -i 15 -k MAC
r -t 0.822271422 -s 10 -d -1 -p message -e 32 -c 2 -a 0 -i 15 -k MAC
r -t 0.822295527 -s 3 -d -1 -p message -e 32 -c 2 -a 0 -i 15 -k RTR
r -t 0.822296147 -s 11 -d -1 -p message -e 32 -c 2 -a 0 -i 15 -k RTR
r -t 0.822296358 -s 18 -d -1 -p message -e 32 -c 2 -a 0 -i 15 -k RTR
r -t 0.822296422 -s 10 -d -1 -p message -e 32 -c 2 -a 0 -i 15 -k RTR
+ -t 0.848147771 -s 17 -d -1 -p message -e 32 -c 2 -a 0 -i 16 -k RTR 
- -t 0.848147771 -s 17 -d -1 -p message -e 32 -c 2 -a 0 -i 16 -k RTR
h -t 0.848147771 -s 17 -d -1 -p message -e 32 -c 2 -a 0 -i 16 -k RTR
+ -t 0.848382771 -s 17 -d -1 -p message -e 90 -c 2 -a 0 -i 16 -k MAC 
- -t 0.848382771 -s 17 -d -1 -p message -e 90 -c 2 -a 0 -i 16 -k MAC
h -t 0.848382771 -s 17 -d -1 -p message -e 90 -c 2 -a 0 -i 16 -k MAC
r -t 0.849103030 -s 26 -d -1 -p message -e 32 -c 2 -a 0 -i 16 -k MAC
r -t 0.849103333 -s 24 -d -1 -p message -e 32 -c 2 -a 0 -i 16 -k MAC
r -t 0.849103758 -s 21 -d -1 -p message -e 32 -c 2 -a 0 -i 16 -k MAC
r -t 0.849103763 -s 7 -d -1 -p message -e 32 -c 2 -a 0 -i 16 -k MAC
r -t 0.849103830 -s 10 -d -1 -p message -e 32 -c 2 -a 0 -i 16 -k MAC
r -t 0.849103899 -s 6 -d -1 -p message -e 32 -c 2 -a 0 -i 16 -k MAC
r -t 0.849103992 -s 2 -d -1 -p message -e 32 -c 2 -a 0 -i 16 -k MAC
r -t 0.849104038 -s 8 -d -1 -p message -e 32 -c 2 -a 0 -i 16 -k MAC
r -t 0.849128030 -s 26 -d -1 -p message -e 32 -c 2 -a 0 -i 16 -k RTR
r -t 0.849128333 -s 24 -d -1 -p message -e 32 -c 2 -a 0 -i 16 -k RTR
r -t 0.849128758 -s 21 -d -1 -p message -e 32 -c 2 -a 0 -i 16 -k RTR
r -t 0.849128763 -s 7 -d -1 -p message -e 32 -c 2 -a 0 -i 16 -k RTR
r -t 0.849128830 -s 10 -d -1 -p message -e 32 -c 2 -a 0 -i 16 -k RTR
r -t 0.849128899 -s 6 -d -1 -p message -e 32 -c 2 -a 0 -i 16 -k RTR
r -t 0.849128992 -s 2 -d -1 -p message -e 32 -c 2 -a 0 -i 16 -k RTR
r -t 0.849129038 -s 8 -d -1 -p message -e 32 -c 2 -a 0 -i 16 -k RTR
+ -t 0.882674688 -s 4 -d -1 -p message -e 32 -c 2 -a 0 -i 17 -k RTR 
- -t 0.882674688 -s 4 -d -1 -p message -e 32 -c 2 -a 0 -i 17 -k RTR
h -t 0.882674688 -s 4 -d -1 -p message -e 32 -c 2 -a 0 -i 17 -k RTR
+ -t 0.882909688 -s 4 -d -1 -p message -e 90 -c 2 -a 0 -i 17 -k MAC 
- -t 0.882909688 -s 4 -d -1 -p message -e 90 -c 2 -a 0 -i 17 -k MAC
h -t 0.882909688 -s 4 -d -1 -p message -e 90 -c 2 -a 0 -i 17 -k MAC
r -t 0.883630186 -s 18 -d -1 -p message -e 32 -c 2 -a 0 -i 17 -k MAC
r -t 0.883630283 -s 20 -d -1 -p message -e 32 -c 2 -a 0 -i 17 -k MAC
r -t 0.883630575 -s 11 -d -1 -p message -e 32 -c 2 -a 0 -i 17 -k MAC
r -t 0.883630945 -s 5 -d -1 -p message -e 32 -c 2 -a 0 -i 17 -k MAC
r -t 0.883655186 -s 18 -d -1 -p message -e 32 -c 2 -a 0 -i 17 -k RTR
r -t 0.883655283 -s 20 -d -1 -p message -e 32 -c 2 -a 0 -i 17 -k RTR
r -t 0.883655575 -s 11 -d -1 -p message -e 32 -c 2 -a 0 -i 17 -k RTR
r -t 0.883655945 -s 5 -d -1 -p message -e 32 -c 2 -a 0 -i 17 -k RTR
+ -t 0.935449221 -s 25 -d -1 -p message -e 32 -c 2 -a 0 -i 18 -k RTR 
- -t 0.935449221 -s 25 -d -1 -p message -e 32 -c 2 -a 0 -i 18 -k RTR
h -t 0.935449221 -s 25 -d -1 -p message -e 32 -c 2 -a 0 -i 18 -k RTR
+ -t 0.935884221 -s 25 -d -1 -p message -e 90 -c 2 -a 0 -i 18 -k MAC 
- -t 0.935884221 -s 25 -d -1 -p message -e 90 -c 2 -a 0 -i 18 -k MAC
h -t 0.935884221 -s 25 -d -1 -p message -e 90 -c 2 -a 0 -i 18 -k MAC
r -t 0.936604644 -s 28 -d -1 -p message -e 32 -c 2 -a 0 -i 18 -k MAC
r -t 0.936605018 -s 19 -d -1 -p message -e 32 -c 2 -a 0 -i 18 -k MAC
r -t 0.936605262 -s 1 -d -1 -p message -e 32 -c 2 -a 0 -i 18 -k MAC
r -t 0.936605313 -s 0 -d -1 -p message -e 32 -c 2 -a 0 -i 18 -k MAC
r -t 0.936629644 -s 28 -d -1 -p message -e 32 -c 2 -a 0 -i 18 -k RTR
r -t 0.936630018 -s 19 -d -1 -p message -e 32 -c 2 -a 0 -i 18 -k RTR
r -t 0.936630262 -s 1 -d -1 -p message -e 32 -c 2 -a 0 -i 18 -k RTR
r -t 0.936630313 -s 0 -d -1 -p message -e 32 -c 2 -a 0 -i 18 -k RTR
+ -t 1.039009780 -s 24 -d -1 -p message -e 32 -c 2 -a 0 -i 19 -k RTR 
- -t 1.039009780 -s 24 -d -1 -p message -e 32 -c 2 -a 0 -i 19 -k RTR
h -t 1.039009780 -s 24 -d -1 -p message -e 32 -c 2 -a 0 -i 19 -k RTR
+ -t 1.039404780 -s 24 -d -1 -p message -e 90 -c 2 -a 0 -i 19 -k MAC 
- -t 1.039404780 -s 24 -d -1 -p message -e 90 -c 2 -a 0 -i 19 -k MAC
h -t 1.039404780 -s 24 -d -1 -p message -e 90 -c 2 -a 0 -i 19 -k MAC
r -t 1.040125341 -s 17 -d -1 -p message -e 32 -c 2 -a 0 -i 19 -k MAC
r -t 1.040125347 -s 21 -d -1 -p message -e 32 -c 2 -a 0 -i 19 -k MAC
r -t 1.040125440 -s 26 -d -1 -p message -e 32 -c 2 -a 0 -i 19 -k MAC
r -t 1.040125503 -s 8 -d -1 -p message -e 32 -c 2 -a 0 -i 19 -k MAC
r -t 1.040125523 -s 2 -d -1 -p message -e 32 -c 2 -a 0 -i 19 -k MAC
r -t 1.040125571 -s 6 -d -1 -p message -e 32 -c 2 -a 0 -i 19 -k MAC
r -t 1.040125845 -s 10 -d -1 -p message -e 32 -c 2 -a 0 -i 19 -k MAC
r -t 1.040125930 -s 0 -d -1 -p message -e 32 -c 2 -a 0 -i 19 -k MAC
r -t 1.040125972 -s 1 -d -1 -p message -e 32 -c 2 -a 0 -i 19 -k MAC
r -t 1.040150341 -s 17 -d -1 -p message -e 32 -c 2 -a 0 -i 19 -k RTR
r -t 1.040150347 -s 21 -d -1 -p message -e 32 -c 2 -a 0 -i 19 -k RTR
r -t 1.040150440 -s 26 -d -1 -p message -e 32 -c 2 -a 0 -i 19 -k RTR
r -t 1.040150503 -s 8 -d -1 -p message -e 32 -c 2 -a 0 -i 19 -k RTR
r -t 1.040150523 -s 2 -d -1 -p message -e 32 -c 2 -a 0 -i 19 -k RTR
r -t 1.040150571 -s 6 -d -1 -p message -e 32 -c 2 -a 0 -i 19 -k RTR
r -t 1.040150845 -s 10 -d -1 -p message -e 32 -c 2 -a 0 -i 19 -k RTR
r -t 1.040150930 -s 0 -d -1 -p message -e 32 -c 2 -a 0 -i 19 -k RTR
r -t 1.040150972 -s 1 -d -1 -p message -e 32 -c 2 -a 0 -i 19 -k RTR
+ -t 1.119657716 -s 1 -d -1 -p message -e 32 -c 2 -a 0 -i 20 -k RTR 
- -t 1.119657716 -s 1 -d -1 -p message -e 32 -c 2 -a 0 -i 20 -k RTR
h -t 1.119657716 -s 1 -d -1 -p message -e 32 -c 2 -a 0 -i 20 -k RTR
+ -t 1.119832716 -s 1 -d -1 -p message -e 90 -c 2 -a 0 -i 20 -k MAC 
- -t 1.119832716 -s 1 -d -1 -p message -e 90 -c 2 -a 0 -i 20 -k MAC
h -t 1.119832716 -s 1 -d -1 -p message -e 90 -c 2 -a 0 -i 20 -k MAC
r -t 1.120552791 -s 0 -d -1 -p message -e 32 -c 2 -a 0 -i 20 -k MAC
r -t 1.120552966 -s 19 -d -1 -p message -e 32 -c 2 -a 0 -i 20 -k MAC
r -t 1.120553246 -s 10 -d -1 -p message -e 32 -c 2 -a 0 -i 20 -k MAC
r -t 1.120553756 -s 8 -d -1 -p message -e 32 -c 2 -a 0 -i 20 -k MAC
r -t 1.120553757 -s 25 -d -1 -p message -e 32 -c 2 -a 0 -i 20 -k MAC
r -t 1.120553908 -s 24 -d -1 -p message -e 32 -c 2 -a 0 -i 20 -k MAC
r -t 1.120577791 -s 0 -d -1 -p message -e 32 -c 2 -a 0 -i 20 -k RTR
r -t 1.120577966 -s 19 -d -1 -p message -e 32 -c 2 -a 0 -i 20 -k RTR
r -t 1.120578246 -s 10 -d -1 -p message -e 32 -c 2 -a 0 -i 20 -k RTR
r -t 1.120578756 -s 8 -d -1 -p message -e 32 -c 2 -a 0 -i 20 -k RTR
r -t 1.120578757 -s 25 -d -1 -p message -e 32 -c 2 -a 0 -i 20 -k RTR
r -t 1.120578908 -s 24 -d -1 -p message -e 32 -c 2 -a 0 -i 20 -k RTR
+ -t 1.277890258 -s 9 -d -1 -p message -e 32 -c 2 -a 0 -i 21 -k RTR 
- -t 1.277890258 -s 9 -d -1 -p message -e 32 -c 2 -a 0 -i 21 -k RTR
h -t 1.277890258 -s 9 -d -1 -p message -e 32 -c 2 -a 0 -i 21 -k RTR
+ -t 1.278565258 -s 9 -d -1 -p message -e 90 -c 2 -a 0 -i 21 -k MAC 
- -t 1.278565258 -s 9 -d -1 -p message -e 90 -c 2 -a 0 -i 21 -k MAC
h -t 1.278565258 -s 9 -d -1 -p message -e 90 -c 2 -a 0 -i 21 -k MAC
r -t 1.279286109 -s 22 -d -1 -p message -e 32 -c 2 -a 0 -i 21 -k MAC
r -t 1.279286309 -s 12 -d -1 -p message -e 32 -c 2 -a 0 -i 21 -k MAC
r -t 1.279286423 -s 5 -d -1 -p message -e 32 -c 2 -a 0 -i 21 -k MAC
r -t 1.279311109 -s 22 -d -1 -p message -e 32 -c 2 -a 0 -i 21 -k RTR
r -t 1.279311309 -s 12 -d -1 -p message -e 32 -c 2 -a 0 -i 21 -k RTR
r -t 1.279311423 -s 5 -d -1 -p message -e 32 -c 2 -a 0 -i 21 -k RTR
+ -t 1.281327089 -s 14 -d -1 -p message -e 32 -c 2 -a 0 -i 22 -k RTR 
- -t 1.281327089 -s 14 -d -1 -p message -e 32 -c 2 -a 0 -i 22 -k RTR
h -t 1.281327089 -s 14 -d -1 -p message -e 32 -c 2 -a 0 -i 22 -k RTR
+ -t 1.281462089 -s 14 -d -1 -p message -e 90 -c 2 -a 0 -i 22 -k MAC 
- -t 1.281462089 -s 14 -d -1 -p message -e 90 -c 2 -a 0 -i 22 -k MAC
h -t 1.281462089 -s 14 -d -1 -p message -e 90 -c 2 -a 0 -i 22 -k MAC
r -t 1.282182529 -s 15 -d -1 -p message -e 32 -c 2 -a 0 -i 22 -k MAC
r -t 1.282182927 -s 12 -d -1 -p message -e 32 -c 2 -a 0 -i 22 -k MAC
r -t 1.282183115 -s 13 -d -1 -p message -e 32 -c 2 -a 0 -i 22 -k MAC
r -t 1.282183417 -s 3 -d -1 -p message -e 32 -c 2 -a 0 -i 22 -k MAC