D 26.38750 _0_ (2,-1->1,-1->8,-1->2,38.387503)
(my address : 0),Route table updated..
VWST 26.387502727072 frm 0 to 2 wst 6.000000000000 nxthp 2 [of 1]
D 40.49459 _0_ (2,1->1,8->10,2->2,50.994587)
(my address : 0),Route table updated..
VWST 40.494587098113 frm 0 to 2 wst 5.250000000000 nxthp 2 [of 1]
U 52.05786 _0_ (1,250->2,0->10,1->2,52.057863)
(my address : 0),Route table updated..
VWST 52.057863314887 frm 0 to 1 wst 5.250000000000 nxthp 2 [of 2]
D 53.33970 _0_ (2,1->1,10->12,2->2,62.527198)
(my address : 0),Route table updated..
VWST 53.339698076405 frm 0 to 2 wst 4.593750000000 nxthp 2 [of 1]
D 64.92475 _0_ (1,2->2,10->12,2->2,74.112252)
(my address : 0),Route table updated..
VWST 64.924752438545 frm 0 to 1 wst 4.593750000000 nxthp 2 [of 2]
D 64.92475 _0_ (2,1->1,12->14,2->2,72.963815)
(my address : 0),Route table updated..
VWST 64.924752438545 frm 0 to 2 wst 4.019531250000 nxthp 2 [of 1]
D 67.83514 _0_ (1,2->1,12->14,2->1,75.874204)
(my address : 0),Route table updated..
VWST 67.835141562733 frm 0 to 1 wst 4.019531250000 nxthp 1 [of 1]
D 77.50511 _0_ (2,1->1,14->16,2->2,84.539294)
(my address : 0),Route table updated..
VWST 77.505114040348 frm 0 to 2 wst 3.517089843750 nxthp 2 [of 1]
D 81.56910 _0_ (1,1->1,14->16,1->1,88.603278)
(my address : 0),Route table updated..
VWST 81.569098267272 frm 0 to 1 wst 3.517089843750 nxthp 1 [of 1]
D 91.36067 _0_ (2,1->1,16->18,2->2,97.515575)
(my address : 0),Route table updated..
VWST 91.360668002301 frm 0 to 2 wst 3.077453613281 nxthp 2 [of 1]
D 93.96414 _0_ (1,1->1,16->18,1->1,100.119049)
(my address : 0),Route table updated..
VWST 93.964141932701 frm 0 to 1 wst 3.077453613281 nxthp 1 [of 1]
D 105.45158 _0_ (2,1->1,18->20,2->2,110.837120)
(my address : 0),Route table updated..
VWST 105.451575727028 frm 0 to 2 wst 2.692771911621 nxthp 2 [of 1]
D 106.90568 _0_ (1,1->1,18->20,1->1,112.291224)
(my address : 0),Route table updated..
VWST 106.905679858489 frm 0 to 1 wst 2.692771911621 nxthp 1 [of 1]
D 117.50190 _0_ (2,1->1,20->22,2->2,122.214248)
(my address : 0),Route table updated..
VWST 117.501896711222 frm 0 to 2 wst 2.356175422668 nxthp 2 [of 1]
D 120.91619 _0_ (1,1->1,20->22,1->1,125.628542)
(my address : 0),Route table updated..
VWST 120.916190960293 frm 0 to 1 wst 2.356175422668 nxthp 1 [of 1]
D 131.94068 _0_ (2,1->1,22->24,2->2,136.063989)
(my address : 0),Route table updated..
VWST 131.940681641048 frm 0 to 2 wst 2.061653494835 nxthp 2 [of 1]
D 144.04576 _0_ (1,1->2,22->24,1->2,148.169063)
(my address : 0),Route table updated..
VWST 144.045755858301 frm 0 to 1 wst 2.061653494835 nxthp 2 [of 2]
D 144.04576 _0_ (2,1->1,24->26,2->2,147.653649)
(my address : 0),Route table updated..
VWST 144.045755858301 frm 0 to 2 wst 1.803946807981 nxthp 2 [of 1]

D 149.44607 _2_ (1,1->1,24->26,1->1,153.569376)
(my address : 2),Route table updated..
VWST 149.446069121636 frm 2 to 1 wst 2.061653494835 nxthp 1 [of 1]
