n -t * -s 0  -x 117.31999999999999 -y 1244.04 -Z 0 -z 100  -v circle -c black
n -t * -s 1  -x 981.03999999999996 -y 1122.77 -Z 0 -z 100  -v circle -c black
n -t * -s 2  -x 443.44999999999999 -y 1186.8299999999999 -Z 0 -z 100  -v circle -c black
n -t * -s 3  -x 1230.26 -y 1091.98 -Z 0 -z 100  -v circle -c black
n -t * -s 4  -x 179.09 -y 681.73000000000002 -Z 0 -z 100  -v circle -c black
n -t * -s 5  -x 1012.5700000000001 -y 1349.8499999999999 -Z 0 -z 100  -v circle -c black
n -t * -s 6  -x 563.84000000000003 -y 391.63999999999999 -Z 0 -z 100  -v circle -c black
n -t * -s 7  -x 409.77999999999997 -y 1065.5999999999999 -Z 0 -z 100  -v circle -c black
n -t * -s 8  -x 102.51000000000001 -y 299.94 -Z 0 -z 100  -v circle -c black
n -t * -s 9  -x 115.44 -y 893.00999999999999 -Z 0 -z 100  -v circle -c black
n -t * -s 10  -x 562.29999999999995 -y 443.72000000000003 -Z 0 -z 100  -v circle -c black
n -t * -s 11  -x 263.58999999999997 -y 1108.1500000000001 -Z 0 -z 100  -v circle -c black
n -t * -s 12  -x 907.19000000000005 -y 94.650000000000006 -Z 0 -z 100  -v circle -c black
n -t * -s 13  -x 989.19000000000005 -y 1394.79 -Z 0 -z 100  -v circle -c black
n -t * -s 14  -x 244.41999999999999 -y 559.49000000000001 -Z 0 -z 100  -v circle -c black
n -t * -s 15  -x 328.81 -y 1353.1099999999999 -Z 0 -z 100  -v circle -c black
n -t * -s 16  -x 846.10000000000002 -y 417.37 -Z 0 -z 100  -v circle -c black
n -t * -s 17  -x 169.00999999999999 -y 737.05999999999995 -Z 0 -z 100  -v circle -c black
n -t * -s 18  -x 460.56999999999999 -y 119.48999999999999 -Z 0 -z 100  -v circle -c black
n -t * -s 19  -x 309.54000000000002 -y 383.44 -Z 0 -z 100  -v circle -c black
n -t * -s 20  -x 141.68000000000001 -y 994.00999999999999 -Z 0 -z 100  -v circle -c black
n -t * -s 21  -x 122.56 -y 954.72000000000003 -Z 0 -z 100  -v circle -c black
n -t * -s 22  -x 309.94999999999999 -y 144.25 -Z 0 -z 100  -v circle -c black
n -t * -s 23  -x 411.80000000000001 -y 80.719999999999999 -Z 0 -z 100  -v circle -c black
n -t * -s 24  -x 1146.98 -y 546.11000000000001 -Z 0 -z 100  -v circle -c black
n -t * -s 25  -x 354.64999999999998 -y 565.74000000000001 -Z 0 -z 100  -v circle -c black
n -t * -s 26  -x 422.60000000000002 -y 1039.1300000000001 -Z 0 -z 100  -v circle -c black
n -t * -s 27  -x 0 -y 0 -Z 0 -z 100  -v circle -c black
n -t * -s 28  -x 0 -y 1000 -Z 0 -z 100  -v circle -c black
n -t * -s 29  -x 1000 -y 0 -Z 0 -z 100  -v circle -c black
V -t * -v 1.0a5 -a 0
W -t * -x 1700 -y 1700
A -t * -n 1 -p 0 -o 0x7fffffff -c 30 -a 1
A -t * -h 1 -m 1073741823 -s 0
n -t 0.000000 -s 0 -x 117.320000 -y 1244.040000 -U 0.000000 -V 0.000000 -T 0.000000
n -t 0.000000 -s 1 -x 981.040000 -y 1122.770000 -U 0.000000 -V 0.000000 -T 0.000000
n -t 0.000000 -s 2 -x 443.450000 -y 1186.830000 -U 0.000000 -V 0.000000 -T 0.000000
n -t 0.000000 -s 3 -x 1230.260000 -y 1091.980000 -U 0.000000 -V 0.000000 -T 0.000000
n -t 0.000000 -s 4 -x 179.090000 -y 681.730000 -U 0.000000 -V 0.000000 -T 0.000000
n -t 0.000000 -s 5 -x 1012.570000 -y 1349.850000 -U 0.000000 -V 0.000000 -T 0.000000
n -t 0.000000 -s 6 -x 563.840000 -y 391.640000 -U 0.000000 -V 0.000000 -T 0.000000
n -t 0.000000 -s 7 -x 409.780000 -y 1065.600000 -U 0.000000 -V 0.000000 -T 0.000000
n -t 0.000000 -s 8 -x 102.510000 -y 299.940000 -U 0.000000 -V 0.000000 -T 0.000000
n -t 0.000000 -s 9 -x 115.440000 -y 893.010000 -U 0.000000 -V 0.000000 -T 0.000000
n -t 0.000000 -s 10 -x 562.300000 -y 443.720000 -U 0.000000 -V 0.000000 -T 0.000000
n -t 0.000000 -s 11 -x 263.590000 -y 1108.150000 -U 0.000000 -V 0.000000 -T 0.000000
n -t 0.000000 -s 12 -x 907.190000 -y 94.650000 -U 0.000000 -V 0.000000 -T 0.000000
n -t 0.000000 -s 13 -x 989.190000 -y 1394.790000 -U 0.000000 -V 0.000000 -T 0.000000
n -t 0.000000 -s 14 -x 244.420000 -y 559.490000 -U 0.000000 -V 0.000000 -T 0.000000
n -t 0.000000 -s 15 -x 328.810000 -y 1353.110000 -U 0.000000 -V 0.000000 -T 0.000000
n -t 0.000000 -s 16 -x 846.100000 -y 417.370000 -U 0.000000 -V 0.000000 -T 0.000000
n -t 0.000000 -s 17 -x 169.010000 -y 737.060000 -U 0.000000 -V 0.000000 -T 0.000000
n -t 0.000000 -s 18 -x 460.570000 -y 119.490000 -U 0.000000 -V 0.000000 -T 0.000000
n -t 0.000000 -s 19 -x 309.540000 -y 383.440000 -U 0.000000 -V 0.000000 -T 0.000000
n -t 0.000000 -s 20 -x 141.680000 -y 994.010000 -U 0.000000 -V 0.000000 -T 0.000000
n -t 0.000000 -s 21 -x 122.560000 -y 954.720000 -U 0.000000 -V 0.000000 -T 0.000000
n -t 0.000000 -s 22 -x 309.950000 -y 144.250000 -U 0.000000 -V 0.000000 -T 0.000000
n -t 0.000000 -s 23 -x 411.800000 -y 80.720000 -U 0.000000 -V 0.000000 -T 0.000000
n -t 0.000000 -s 24 -x 1146.980000 -y 546.110000 -U 0.000000 -V 0.000000 -T 0.000000
n -t 0.000000 -s 25 -x 354.650000 -y 565.740000 -U 0.000000 -V 0.000000 -T 0.000000
n -t 0.000000 -s 26 -x 422.600000 -y 1039.130000 -U 0.000000 -V 0.000000 -T 0.000000
n -t 0.000000 -s 0 -x 117.320000 -y 1244.040000 -U 0.000000 -V 0.000000 -T 0.000000
n -t 0.000000 -s 1 -x 981.040000 -y 1122.770000 -U 0.000000 -V 0.000000 -T 0.000000
+ -t 0.003091411 -s 0 -d -1 -p message -e 32 -c 2 -a 0 -i 0 -k RTR 
- -t 0.003091411 -s 0 -d -1 -p message -e 32 -c 2 -a 0 -i 0 -k RTR
h -t 0.003091411 -s 0 -d -1 -p message -e 32 -c 2 -a 0 -i 0 -k RTR
+ -t 0.003466411 -s 0 -d -1 -p message -e 90 -c 2 -a 0 -i 0 -k MAC 
- -t 0.003466411 -s 0 -d -1 -p message -e 90 -c 2 -a 0 -i 0 -k MAC
h -t 0.003466411 -s 0 -d -1 -p message -e 90 -c 2 -a 0 -i 0 -k MAC
r -t 0.004187076 -s 11 -d -1 -p message -e 32 -c 2 -a 0 -i 0 -k MAC
r -t 0.004187204 -s 15 -d -1 -p message -e 32 -c 2 -a 0 -i 0 -k MAC
r -t 0.004187248 -s 20 -d -1 -p message -e 32 -c 2 -a 0 -i 0 -k MAC
r -t 0.004187313 -s 28 -d -1 -p message -e 32 -c 2 -a 0 -i 0 -k MAC
r -t 0.004187375 -s 21 -d -1 -p message -e 32 -c 2 -a 0 -i 0 -k MAC
r -t 0.004187514 -s 2 -d -1 -p message -e 32 -c 2 -a 0 -i 0 -k MAC
r -t 0.004187553 -s 7 -d -1 -p message -e 32 -c 2 -a 0 -i 0 -k MAC
r -t 0.004187581 -s 9 -d -1 -p message -e 32 -c 2 -a 0 -i 0 -k MAC
r -t 0.004187636 -s 26 -d -1 -p message -e 32 -c 2 -a 0 -i 0 -k MAC
r -t 0.004212076 -s 11 -d -1 -p message -e 32 -c 2 -a 0 -i 0 -k RTR
r -t 0.004212204 -s 15 -d -1 -p message -e 32 -c 2 -a 0 -i 0 -k RTR
r -t 0.004212248 -s 20 -d -1 -p message -e 32 -c 2 -a 0 -i 0 -k RTR
r -t 0.004212313 -s 28 -d -1 -p message -e 32 -c 2 -a 0 -i 0 -k RTR
r -t 0.004212375 -s 21 -d -1 -p message -e 32 -c 2 -a 0 -i 0 -k RTR
r -t 0.004212514 -s 2 -d -1 -p message -e 32 -c 2 -a 0 -i 0 -k RTR
r -t 0.004212553 -s 7 -d -1 -p message -e 32 -c 2 -a 0 -i 0 -k RTR
r -t 0.004212581 -s 9 -d -1 -p message -e 32 -c 2 -a 0 -i 0 -k RTR
r -t 0.004212636 -s 26 -d -1 -p message -e 32 -c 2 -a 0 -i 0 -k RTR
+ -t 0.037458776 -s 2 -d -1 -p message -e 32 -c 2 -a 0 -i 1 -k RTR 
- -t 0.037458776 -s 2 -d -1 -p message -e 32 -c 2 -a 0 -i 1 -k RTR
h -t 0.037458776 -s 2 -d -1 -p message -e 32 -c 2 -a 0 -i 1 -k RTR
+ -t 0.037813776 -s 2 -d -1 -p message -e 90 -c 2 -a 0 -i 1 -k MAC 
- -t 0.037813776 -s 2 -d -1 -p message -e 90 -c 2 -a 0 -i 1 -k MAC
h -t 0.037813776 -s 2 -d -1 -p message -e 90 -c 2 -a 0 -i 1 -k MAC
r -t 0.038534195 -s 7 -d -1 -p message -e 32 -c 2 -a 0 -i 1 -k MAC
r -t 0.038534273 -s 26 -d -1 -p message -e 32 -c 2 -a 0 -i 1 -k MAC
r -t 0.038534430 -s 11 -d -1 -p message -e 32 -c 2 -a 0 -i 1 -k MAC
r -t 0.038534449 -s 15 -d -1 -p message -e 32 -c 2 -a 0 -i 1 -k MAC
r -t 0.038534880 -s 0 -d -1 -p message -e 32 -c 2 -a 0 -i 1 -k MAC
r -t 0.038534970 -s 20 -d -1 -p message -e 32 -c 2 -a 0 -i 1 -k MAC
r -t 0.038535096 -s 21 -d -1 -p message -e 32 -c 2 -a 0 -i 1 -k MAC
r -t 0.038559195 -s 7 -d -1 -p message -e 32 -c 2 -a 0 -i 1 -k RTR
r -t 0.038559273 -s 26 -d -1 -p message -e 32 -c 2 -a 0 -i 1 -k RTR
r -t 0.038559430 -s 11 -d -1 -p message -e 32 -c 2 -a 0 -i 1 -k RTR
r -t 0.038559449 -s 15 -d -1 -p message -e 32 -c 2 -a 0 -i 1 -k RTR
r -t 0.038559880 -s 0 -d -1 -p message -e 32 -c 2 -a 0 -i 1 -k RTR
r -t 0.038559970 -s 20 -d -1 -p message -e 32 -c 2 -a 0 -i 1 -k RTR
r -t 0.038560096 -s 21 -d -1 -p message -e 32 -c 2 -a 0 -i 1 -k RTR
+ -t 0.087462768 -s 13 -d -1 -p message -e 32 -c 2 -a 0 -i 2 -k RTR 
- -t 0.087462768 -s 13 -d -1 -p message -e 32 -c 2 -a 0 -i 2 -k RTR
h -t 0.087462768 -s 13 -d -1 -p message -e 32 -c 2 -a 0 -i 2 -k RTR
+ -t 0.087757768 -s 13 -d -1 -p message -e 90 -c 2 -a 0 -i 2 -k MAC 
- -t 0.087757768 -s 13 -d -1 -p message -e 90 -c 2 -a 0 -i 2 -k MAC
h -t 0.087757768 -s 13 -d -1 -p message -e 90 -c 2 -a 0 -i 2 -k MAC
r -t 0.088477937 -s 5 -d -1 -p message -e 32 -c 2 -a 0 -i 2 -k MAC
r -t 0.088478675 -s 1 -d -1 -p message -e 32 -c 2 -a 0 -i 2 -k MAC
r -t 0.088479058 -s 3 -d -1 -p message -e 32 -c 2 -a 0 -i 2 -k MAC
r -t 0.088502937 -s 5 -d -1 -p message -e 32 -c 2 -a 0 -i 2 -k RTR
r -t 0.088503675 -s 1 -d -1 -p message -e 32 -c 2 -a 0 -i 2 -k RTR
r -t 0.088504058 -s 3 -d -1 -p message -e 32 -c 2 -a 0 -i 2 -k RTR
+ -t 0.177365656 -s 3 -d -1 -p message -e 32 -c 2 -a 0 -i 3 -k RTR 
- -t 0.177365656 -s 3 -d -1 -p message -e 32 -c 2 -a 0 -i 3 -k RTR
h -t 0.177365656 -s 3 -d -1 -p message -e 32 -c 2 -a 0 -i 3 -k RTR
+ -t 0.177560656 -s 3 -d -1 -p message -e 90 -c 2 -a 0 -i 3 -k MAC 
- -t 0.177560656 -s 3 -d -1 -p message -e 90 -c 2 -a 0 -i 3 -k MAC
h -t 0.177560656 -s 3 -d -1 -p message -e 90 -c 2 -a 0 -i 3 -k MAC
r -t 0.178281493 -s 1 -d -1 -p message -e 32 -c 2 -a 0 -i 3 -k MAC
r -t 0.178281781 -s 5 -d -1 -p message -e 32 -c 2 -a 0 -i 3 -k MAC
r -t 0.178281946 -s 13 -d -1 -p message -e 32 -c 2 -a 0 -i 3 -k MAC
r -t 0.178306493 -s 1 -d -1 -p message -e 32 -c 2 -a 0 -i 3 -k RTR
r -t 0.178306781 -s 5 -d -1 -p message -e 32 -c 2 -a 0 -i 3 -k RTR
r -t 0.178306946 -s 13 -d -1 -p message -e 32 -c 2 -a 0 -i 3 -k RTR
+ -t 0.191634337 -s 19 -d -1 -p message -e 32 -c 2 -a 0 -i 4 -k RTR 
- -t 0.191634337 -s 19 -d -1 -p message -e 32 -c 2 -a 0 -i 4 -k RTR
h -t 0.191634337 -s 19 -d -1 -p message -e 32 -c 2 -a 0 -i 4 -k RTR
+ -t 0.191889337 -s 19 -d -1 -p message -e 90 -c 2 -a 0 -i 4 -k MAC 
- -t 0.191889337 -s 19 -d -1 -p message -e 90 -c 2 -a 0 -i 4 -k MAC
h -t 0.191889337 -s 19 -d -1 -p message -e 90 -c 2 -a 0 -i 4 -k MAC
r -t 0.192609962 -s 14 -d -1 -p message -e 32 -c 2 -a 0 -i 4 -k MAC
r -t 0.192609963 -s 25 -d -1 -p message -e 32 -c 2 -a 0 -i 4 -k MAC
r -t 0.192610081 -s 8 -d -1 -p message -e 32 -c 2 -a 0 -i 4 -k MAC
r -t 0.192610134 -s 22 -d -1 -p message -e 32 -c 2 -a 0 -i 4 -k MAC
r -t 0.192610185 -s 6 -d -1 -p message -e 32 -c 2 -a 0 -i 4 -k MAC
r -t 0.192610203 -s 10 -d -1 -p message -e 32 -c 2 -a 0 -i 4 -k MAC
r -t 0.192610350 -s 18 -d -1 -p message -e 32 -c 2 -a 0 -i 4 -k MAC
r -t 0.192610402 -s 23 -d -1 -p message -e 32 -c 2 -a 0 -i 4 -k MAC
r -t 0.192610422 -s 4 -d -1 -p message -e 32 -c 2 -a 0 -i 4 -k MAC
r -t 0.192610605 -s 17 -d -1 -p message -e 32 -c 2 -a 0 -i 4 -k MAC
r -t 0.192634962 -s 14 -d -1 -p message -e 32 -c 2 -a 0 -i 4 -k RTR
r -t 0.192634963 -s 25 -d -1 -p message -e 32 -c 2 -a 0 -i 4 -k RTR
r -t 0.192635081 -s 8 -d -1 -p message -e 32 -c 2 -a 0 -i 4 -k RTR
r -t 0.192635134 -s 22 -d -1 -p message -e 32 -c 2 -a 0 -i 4 -k RTR
r -t 0.192635185 -s 6 -d -1 -p message -e 32 -c 2 -a 0 -i 4 -k RTR
r -t 0.192635203 -s 10 -d -1 -p message -e 32 -c 2 -a 0 -i 4 -k RTR
r -t 0.192635350 -s 18 -d -1 -p message -e 32 -c 2 -a 0 -i 4 -k RTR
r -t 0.192635402 -s 23 -d -1 -p message -e 32 -c 2 -a 0 -i 4 -k RTR
r -t 0.192635422 -s 4 -d -1 -p message -e 32 -c 2 -a 0 -i 4 -k RTR
r -t 0.192635605 -s 17 -d -1 -p message -e 32 -c 2 -a 0 -i 4 -k RTR
+ -t 0.234603229 -s 15 -d -1 -p message -e 32 -c 2 -a 0 -i 5 -k RTR 
- -t 0.234603229 -s 15 -d -1 -p message -e 32 -c 2 -a 0 -i 5 -k RTR
h -t 0.234603229 -s 15 -d -1 -p message -e 32 -c 2 -a 0 -i 5 -k RTR
+ -t 0.234898229 -s 15 -d -1 -p message -e 90 -c 2 -a 0 -i 5 -k MAC 
- -t 0.234898229 -s 15 -d -1 -p message -e 90 -c 2 -a 0 -i 5 -k MAC
h -t 0.234898229 -s 15 -d -1 -p message -e 90 -c 2 -a 0 -i 5 -k MAC
r -t 0.235618903 -s 2 -d -1 -p message -e 32 -c 2 -a 0 -i 5 -k MAC
r -t 0.235619023 -s 0 -d -1 -p message -e 32 -c 2 -a 0 -i 5 -k MAC
r -t 0.235619074 -s 11 -d -1 -p message -e 32 -c 2 -a 0 -i 5 -k MAC
r -t 0.235619225 -s 7 -d -1 -p message -e 32 -c 2 -a 0 -i 5 -k MAC
r -t 0.235619322 -s 26 -d -1 -p message -e 32 -c 2 -a 0 -i 5 -k MAC
r -t 0.235643903 -s 2 -d -1 -p message -e 32 -c 2 -a 0 -i 5 -k RTR
r -t 0.235644023 -s 0 -d -1 -p message -e 32 -c 2 -a 0 -i 5 -k RTR
r -t 0.235644074 -s 11 -d -1 -p message -e 32 -c 2 -a 0 -i 5 -k RTR
r -t 0.235644225 -s 7 -d -1 -p message -e 32 -c 2 -a 0 -i 5 -k RTR
r -t 0.235644322 -s 26 -d -1 -p message -e 32 -c 2 -a 0 -i 5 -k RTR
+ -t 0.333839210 -s 12 -d -1 -p message -e 32 -c 2 -a 0 -i 6 -k RTR 
- -t 0.333839210 -s 12 -d -1 -p message -e 32 -c 2 -a 0 -i 6 -k RTR
h -t 0.333839210 -s 12 -d -1 -p message -e 32 -c 2 -a 0 -i 6 -k RTR
+ -t 0.333994210 -s 12 -d -1 -p message -e 90 -c 2 -a 0 -i 6 -k MAC 
- -t 0.333994210 -s 12 -d -1 -p message -e 90 -c 2 -a 0 -i 6 -k MAC
h -t 0.333994210 -s 12 -d -1 -p message -e 90 -c 2 -a 0 -i 6 -k MAC
r -t 0.334714652 -s 29 -d -1 -p message -e 32 -c 2 -a 0 -i 6 -k MAC
r -t 0.334715305 -s 16 -d -1 -p message -e 32 -c 2 -a 0 -i 6 -k MAC
r -t 0.334739652 -s 29 -d -1 -p message -e 32 -c 2 -a 0 -i 6 -k RTR
r -t 0.334740305 -s 16 -d -1 -p message -e 32 -c 2 -a 0 -i 6 -k RTR
+ -t 0.351472650 -s 18 -d -1 -p message -e 32 -c 2 -a 0 -i 7 -k RTR 
- -t 0.351472650 -s 18 -d -1 -p message -e 32 -c 2 -a 0 -i 7 -k RTR
h -t 0.351472650 -s 18 -d -1 -p message -e 32 -c 2 -a 0 -i 7 -k RTR
+ -t 0.351847650 -s 18 -d -1 -p message -e 90 -c 2 -a 0 -i 7 -k MAC 
- -t 0.351847650 -s 18 -d -1 -p message -e 90 -c 2 -a 0 -i 7 -k MAC
h -t 0.351847650 -s 18 -d -1 -p message -e 90 -c 2 -a 0 -i 7 -k MAC
r -t 0.352567858 -s 23 -d -1 -p message -e 32 -c 2 -a 0 -i 7 -k MAC
r -t 0.352568159 -s 22 -d -1 -p message -e 32 -c 2 -a 0 -i 7 -k MAC
r -t 0.352568620 -s 6 -d -1 -p message -e 32 -c 2 -a 0 -i 7 -k MAC
r -t 0.352568664 -s 19 -d -1 -p message -e 32 -c 2 -a 0 -i 7 -k MAC
r -t 0.352568783 -s 10 -d -1 -p message -e 32 -c 2 -a 0 -i 7 -k MAC
r -t 0.352592858 -s 23 -d -1 -p message -e 32 -c 2 -a 0 -i 7 -k RTR
r -t 0.352593159 -s 22 -d -1 -p message -e 32 -c 2 -a 0 -i 7 -k RTR
r -t 0.352593620 -s 6 -d -1 -p message -e 32 -c 2 -a 0 -i 7 -k RTR
r -t 0.352593664 -s 19 -d -1 -p message -e 32 -c 2 -a 0 -i 7 -k RTR
r -t 0.352593783 -s 10 -d -1 -p message -e 32 -c 2 -a 0 -i 7 -k RTR
+ -t 0.436386259 -s 29 -d -1 -p message -e 32 -c 2 -a 0 -i 8 -k RTR 
- -t 0.436386259 -s 29 -d -1 -p message -e 32 -c 2 -a 0 -i 8 -k RTR
h -t 0.436386259 -s 29 -d -1 -p message -e 32 -c 2 -a 0 -i 8 -k RTR
+ -t 0.436701259 -s 29 -d -1 -p message -e 90 -c 2 -a 0 -i 8 -k MAC 
- -t 0.436701259 -s 29 -d -1 -p message -e 90 -c 2 -a 0 -i 8 -k MAC
h -t 0.436701259 -s 29 -d -1 -p message -e 90 -c 2 -a 0 -i 8 -k MAC
r -t 0.437421701 -s 12 -d -1 -p message -e 32 -c 2 -a 0 -i 8 -k MAC
r -t 0.437446701 -s 12 -d -1 -p message -e 32 -c 2 -a 0 -i 8 -k RTR
+ -t 0.470117073 -s 8 -d -1 -p message -e 32 -c 2 -a 0 -i 9 -k RTR 
- -t 0.470117073 -s 8 -d -1 -p message -e 32 -c 2 -a 0 -i 9 -k RTR
h -t 0.470117073 -s 8 -d -1 -p message -e 32 -c 2 -a 0 -i 9 -k RTR
+ -t 0.470652073 -s 8 -d -1 -p message -e 90 -c 2 -a 0 -i 9 -k MAC 
- -t 0.470652073 -s 8 -d -1 -p message -e 90 -c 2 -a 0 -i 9 -k MAC
h -t 0.470652073 -s 8 -d -1 -p message -e 90 -c 2 -a 0 -i 9 -k MAC
r -t 0.471372817 -s 19 -d -1 -p message -e 32 -c 2 -a 0 -i 9 -k MAC
r -t 0.471372937 -s 22 -d -1 -p message -e 32 -c 2 -a 0 -i 9 -k MAC
r -t 0.471373059 -s 14 -d -1 -p message -e 32 -c 2 -a 0 -i 9 -k MAC
r -t 0.471373129 -s 27 -d -1 -p message -e 32 -c 2 -a 0 -i 9 -k MAC
r -t 0.471373294 -s 25 -d -1 -p message -e 32 -c 2 -a 0 -i 9 -k MAC
r -t 0.471373337 -s 23 -d -1 -p message -e 32 -c 2 -a 0 -i 9 -k MAC
r -t 0.471373371 -s 4 -d -1 -p message -e 32 -c 2 -a 0 -i 9 -k MAC
r -t 0.471397817 -s 19 -d -1 -p message -e 32 -c 2 -a 0 -i 9 -k RTR
r -t 0.471397937 -s 22 -d -1 -p message -e 32 -c 2 -a 0 -i 9 -k RTR
r -t 0.471398059 -s 14 -d -1 -p message -e 32 -c 2 -a 0 -i 9 -k RTR
r -t 0.471398129 -s 27 -d -1 -p message -e 32 -c 2 -a 0 -i 9 -k RTR
r -t 0.471398294 -s 25 -d -1 -p message -e 32 -c 2 -a 0 -i 9 -k RTR
r -t 0.471398337 -s 23 -d -1 -p message -e 32 -c 2 -a 0 -i 9 -k RTR
r -t 0.471398371 -s 4 -d -1 -p message -e 32 -c 2 -a 0 -i 9 -k RTR
+ -t 0.521504883 -s 22 -d -1 -p message -e 32 -c 2 -a 0 -i 10 -k RTR 
- -t 0.521504883 -s 22 -d -1 -p message -e 32 -c 2 -a 0 -i 10 -k RTR
h -t 0.521504883 -s 22 -d -1 -p message -e 32 -c 2 -a 0 -i 10 -k RTR
+ -t 0.521659883 -s 22 -d -1 -p message -e 90 -c 2 -a 0 -i 10 -k MAC 
- -t 0.521659883 -s 22 -d -1 -p message -e 90 -c 2 -a 0 -i 10 -k MAC
h -t 0.521659883 -s 22 -d -1 -p message -e 90 -c 2 -a 0 -i 10 -k MAC
r -t 0.522380283 -s 23 -d -1 -p message -e 32 -c 2 -a 0 -i 10 -k MAC
r -t 0.522380392 -s 18 -d -1 -p message -e 32 -c 2 -a 0 -i 10 -k MAC
r -t 0.522380680 -s 19 -d -1 -p message -e 32 -c 2 -a 0 -i 10 -k MAC
r -t 0.522380748 -s 8 -d -1 -p message -e 32 -c 2 -a 0 -i 10 -k MAC
r -t 0.522381023 -s 27 -d -1 -p message -e 32 -c 2 -a 0 -i 10 -k MAC
r -t 0.522381065 -s 6 -d -1 -p message -e 32 -c 2 -a 0 -i 10 -k MAC
r -t 0.522381189 -s 10 -d -1 -p message -e 32 -c 2 -a 0 -i 10 -k MAC
r -t 0.522405283 -s 23 -d -1 -p message -e 32 -c 2 -a 0 -i 10 -k RTR
r -t 0.522405392 -s 18 -d -1 -p message -e 32 -c 2 -a 0 -i 10 -k RTR
r -t 0.522405680 -s 19 -d -1 -p message -e 32 -c 2 -a 0 -i 10 -k RTR
r -t 0.522405748 -s 8 -d -1 -p message -e 32 -c 2 -a 0 -i 10 -k RTR
r -t 0.522406023 -s 27 -d -1 -p message -e 32 -c 2 -a 0 -i 10 -k RTR
r -t 0.522406065 -s 6 -d -1 -p message -e 32 -c 2 -a 0 -i 10 -k RTR
r -t 0.522406189 -s 10 -d -1 -p message -e 32 -c 2 -a 0 -i 10 -k RTR
+ -t 0.556838879 -s 28 -d -1 -p cbr -e 512 -c 2 -a 0 -i 11 -k AGT 
- -t 0.556838879 -s 28 -d -1 -p cbr -e 512 -c 2 -a 0 -i 11 -k AGT
h -t 0.556838879 -s 28 -d -1 -p cbr -e 512 -c 2 -a 0 -i 11 -k AGT
+ -t 0.627186592 -s 10 -d -1 -p message -e 32 -c 2 -a 0 -i 12 -k RTR 
- -t 0.627186592 -s 10 -d -1 -p message -e 32 -c 2 -a 0 -i 12 -k RTR
h -t 0.627186592 -s 10 -d -1 -p message -e 32 -c 2 -a 0 -i 12 -k RTR
+ -t 0.627321592 -s 10 -d -1 -p message -e 90 -c 2 -a 0 -i 12 -k MAC 
- -t 0.627321592 -s 10 -d -1 -p message -e 90 -c 2 -a 0 -i 12 -k MAC
h -t 0.627321592 -s 10 -d -1 -p message -e 90 -c 2 -a 0 -i 12 -k MAC
r -t 0.628041766 -s 6 -d -1 -p message -e 32 -c 2 -a 0 -i 12 -k MAC
r -t 0.628042395 -s 25 -d -1 -p message -e 32 -c 2 -a 0 -i 12 -k MAC
r -t 0.628042458 -s 19 -d -1 -p message -e 32 -c 2 -a 0 -i 12 -k MAC
r -t 0.628042542 -s 16 -d -1 -p message -e 32 -c 2 -a 0 -i 12 -k MAC
r -t 0.628042720 -s 14 -d -1 -p message -e 32 -c 2 -a 0 -i 12 -k MAC
r -t 0.628042725 -s 18 -d -1 -p message -e 32 -c 2 -a 0 -i 12 -k MAC
r -t 0.628042897 -s 22 -d -1 -p message -e 32 -c 2 -a 0 -i 12 -k MAC
r -t 0.628042902 -s 23 -d -1 -p message -e 32 -c 2 -a 0 -i 12 -k MAC
r -t 0.628066766 -s 6 -d -1 -p message -e 32 -c 2 -a 0 -i 12 -k RTR
r -t 0.628067395 -s 25 -d -1 -p message -e 32 -c 2 -a 0 -i 12 -k RTR
r -t 0.628067458 -s 19 -d -1 -p message -e 32 -c 2 -a 0 -i 12 -k RTR
r -t 0.628067542 -s 16 -d -1 -p message -e 32 -c 2 -a 0 -i 12 -k RTR
r -t 0.628067720 -s 14 -d -1 -p message -e 32 -c 2 -a 0 -i 12 -k RTR
r -t 0.628067725 -s 18 -d -1 -p message -e 32 -c 2 -a 0 -i 12 -k RTR
r -t 0.628067897 -s 22 -d -1 -p message -e 32 -c 2 -a 0 -i 12 -k RTR
r -t 0.628067902 -s 23 -d -1 -p message -e 32 -c 2 -a 0 -i 12 -k RTR
+ -t 0.634670006 -s 6 -d -1 -p message -e 32 -c 2 -a 0 -i 13 -k RTR 
- -t 0.634670006 -s 6 -d -1 -p message -e 32 -c 2 -a 0 -i 13 -k RTR
h -t 0.634670006 -s 6 -d -1 -p message -e 32 -c 2 -a 0 -i 13 -k RTR
+ -t 0.634865006 -s 6 -d -1 -p message -e 90 -c 2 -a 0 -i 13 -k MAC 
- -t 0.634865006 -s 6 -d -1 -p message -e 90 -c 2 -a 0 -i 13 -k MAC
h -t 0.634865006 -s 6 -d -1 -p message -e 90 -c 2 -a 0 -i 13 -k MAC
r -t 0.635585180 -s 10 -d -1 -p message -e 32 -c 2 -a 0 -i 13 -k MAC
r -t 0.635585854 -s 19 -d -1 -p message -e 32 -c 2 -a 0 -i 13 -k MAC
r -t 0.635585914 -s 25 -d -1 -p message -e 32 -c 2 -a 0 -i 13 -k MAC
r -t 0.635585951 -s 16 -d -1 -p message -e 32 -c 2 -a 0 -i 13 -k MAC
r -t 0.635585977 -s 18 -d -1 -p message -e 32 -c 2 -a 0 -i 13 -k MAC
r -t 0.635586160 -s 23 -d -1 -p message -e 32 -c 2 -a 0 -i 13 -k MAC
r -t 0.635586188 -s 22 -d -1 -p message -e 32 -c 2 -a 0 -i 13 -k MAC
r -t 0.635586209 -s 14 -d -1 -p message -e 32 -c 2 -a 0 -i 13 -k MAC
r -t 0.635610180 -s 10 -d -1 -p message -e 32 -c 2 -a 0 -i 13 -k RTR
r -t 0.635610854 -s 19 -d -1 -p message -e 32 -c 2 -a 0 -i 13 -k RTR
r -t 0.635610914 -s 25 -d -1 -p message -e 32 -c 2 -a 0 -i 13 -k RTR
r -t 0.635610951 -s 16 -d -1 -p message -e 32 -c 2 -a 0 -i 13 -k RTR
r -t 0.635610977 -s 18 -d -1 -p message -e 32 -c 2 -a 0 -i 13 -k RTR
r -t 0.635611160 -s 23 -d -1 -p message -e 32 -c 2 -a 0 -i 13 -k RTR
r -t 0.635611188 -s 22 -d -1 -p message -e 32 -c 2 -a 0 -i 13 -k RTR
r -t 0.635611209 -s 14 -d -1 -p message -e 32 -c 2 -a 0 -i 13 -k RTR
+ -t 0.705637875 -s 21 -d -1 -p message -e 32 -c 2 -a 0 -i 14 -k RTR 
- -t 0.705637875 -s 21 -d -1 -p message -e 32 -c 2 -a 0 -i 14 -k RTR
h -t 0.705637875 -s 21 -d -1 -p message -e 32 -c 2 -a 0 -i 14 -k RTR
+ -t 0.706012875 -s 21 -d -1 -p message -e 90 -c 2 -a 0 -i 14 -k MAC 
- -t 0.706012875 -s 21 -d -1 -p message -e 90 -c 2 -a 0 -i 14 -k MAC
h -t 0.706012875 -s 21 -d -1 -p message -e 90 -c 2 -a 0 -i 14 -k MAC
r -t 0.706733020 -s 20 -d -1 -p message -e 32 -c 2 -a 0 -i 14 -k MAC
r -t 0.706733082 -s 9 -d -1 -p message -e 32 -c 2 -a 0 -i 14 -k MAC
r -t 0.706733310 -s 28 -d -1 -p message -e 32 -c 2 -a 0 -i 14 -k MAC
r -t 0.706733569 -s 11 -d -1 -p message -e 32 -c 2 -a 0 -i 14 -k MAC
r -t 0.706733616 -s 17 -d -1 -p message -e 32 -c 2 -a 0 -i 14 -k MAC
r -t 0.706733804 -s 4 -d -1 -p message -e 32 -c 2 -a 0 -i 14 -k MAC
r -t 0.706733839 -s 0 -d -1 -p message -e 32 -c 2 -a 0 -i 14 -k MAC
r -t 0.706733901 -s 7 -d -1 -p message -e 32 -c 2 -a 0 -i 14 -k MAC
r -t 0.706733913 -s 26 -d -1 -p message -e 32 -c 2 -a 0 -i 14 -k MAC
r -t 0.706734195 -s 2 -d -1 -p message -e 32 -c 2 -a 0 -i 14 -k MAC
r -t 0.706758020 -s 20 -d -1 -p message -e 32 -c 2 -a 0 -i 14 -k RTR
r -t 0.706758082 -s 9 -d -1 -p message -e 32 -c 2 -a 0 -i 14 -k RTR
r -t 0.706758310 -s 28 -d -1 -p message -e 32 -c 2 -a 0 -i 14 -k RTR
r -t 0.706758569 -s 11 -d -1 -p message -e 32 -c 2 -a 0 -i 14 -k RTR
r -t 0.706758616 -s 17 -d -1 -p message -e 32 -c 2 -a 0 -i 14 -k RTR
r -t 0.706758804 -s 4 -d -1 -p message -e 32 -c 2 -a 0 -i 14 -k RTR
r -t 0.706758839 -s 0 -d -1 -p message -e 32 -c 2 -a 0 -i 14 -k RTR
r -t 0.706758901 -s 7 -d -1 -p message -e 32 -c 2 -a 0 -i 14 -k RTR
r -t 0.706758913 -s 26 -d -1 -p message -e 32 -c 2 -a 0 -i 14 -k RTR
r -t 0.706759195 -s 2 -d -1 -p message -e 32 -c 2 -a 0 -i 14 -k RTR
+ -t 0.821435127 -s 23 -d -1 -p message -e 32 -c 2 -a 0 -i 15 -k RTR 
- -t 0.821435127 -s 23 -d -1 -p message -e 32 -c 2 -a 0 -i 15 -k RTR
h -t 0.821435127 -s 23 -d -1 -p message -e 32 -c 2 -a 0 -i 15 -k RTR
+ -t 0.821550127 -s 23 -d -1 -p message -e 90 -c 2 -a 0 -i 15 -k MAC 
- -t 0.821550127 -s 23 -d -1 -p message -e 90 -c 2 -a 0 -i 15 -k MAC
h -t 0.821550127 -s 23 -d -1 -p message -e 90 -c 2 -a 0 -i 15 -k MAC
r -t 0.822270335 -s 18 -d -1 -p message -e 32 -c 2 -a 0 -i 15 -k MAC
r -t 0.822270527 -s 22 -d -1 -p message -e 32 -c 2 -a 0 -i 15 -k MAC
r -t 0.822271192 -s 19 -d -1 -p message -e 32 -c 2 -a 0 -i 15 -k MAC
r -t 0.822271281 -s 6 -d -1 -p message -e 32 -c 2 -a 0 -i 15 -k MAC
r -t 0.822271391 -s 8 -d -1 -p message -e 32 -c 2 -a 0 -i 15 -k MAC
r -t 0.822271437 -s 10 -d -1 -p message -e 32 -c 2 -a 0 -i 15 -k MAC
r -t 0.822295335 -s 18 -d -1 -p message -e 32 -c 2 -a 0 -i 15 -k RTR
r -t 0.822295527 -s 22 -d -1 -p message -e 32 -c 2 -a 0 -i 15 -k RTR
r -t 0.822296192 -s 19 -d -1 -p message -e 32 -c 2 -a 0 -i 15 -k RTR
r -t 0.822296281 -s 6 -d -1 -p message -e 32 -c 2 -a 0 -i 15 -k RTR
r -t 0.822296391 -s 8 -d -1 -p message -e 32 -c 2 -a 0 -i 15 -k RTR
r -t 0.822296437 -s 10 -d -1 -p message -e 32 -c 2 -a 0 -i 15 -k RTR
+ -t 0.848147771 -s 17 -d -1 -p message -e 32 -c 2 -a 0 -i 16 -k RTR 
- -t 0.848147771 -s 17 -d -1 -p message -e 32 -c 2 -a 0 -i 16 -k RTR
h -t 0.848147771 -s 17 -d -1 -p message -e 32 -c 2 -a 0 -i 16 -k RTR
+ -t 0.848382771 -s 17 -d -1 -p message -e 90 -c 2 -a 0 -i 16 -k MAC 
- -t 0.848382771 -s 17 -d -1 -p message -e 90 -c 2 -a 0 -i 16 -k MAC
h -t 0.848382771 -s 17 -d -1 -p message -e 90 -c 2 -a 0 -i 16 -k MAC
r -t 0.849102959 -s 4 -d -1 -p message -e 32 -c 2 -a 0 -i 16 -k MAC
r -t 0.849103321 -s 9 -d -1 -p message -e 32 -c 2 -a 0 -i 16 -k MAC
r -t 0.849103415 -s 14 -d -1 -p message -e 32 -c 2 -a 0 -i 16 -k MAC
r -t 0.849103513 -s 21 -d -1 -p message -e 32 -c 2 -a 0 -i 16 -k MAC
r -t 0.849103614 -s 25 -d -1 -p message -e 32 -c 2 -a 0 -i 16 -k MAC
r -t 0.849103633 -s 20 -d -1 -p message -e 32 -c 2 -a 0 -i 16 -k MAC
r -t 0.849103813 -s 28 -d -1 -p message -e 32 -c 2 -a 0 -i 16 -k MAC
r -t 0.849104040 -s 19 -d -1 -p message -e 32 -c 2 -a 0 -i 16 -k MAC
r -t 0.849104048 -s 11 -d -1 -p message -e 32 -c 2 -a 0 -i 16 -k MAC
r -t 0.849104086 -s 26 -d -1 -p message -e 32 -c 2 -a 0 -i 16 -k MAC
r -t 0.849127959 -s 4 -d -1 -p message -e 32 -c 2 -a 0 -i 16 -k RTR
r -t 0.849128321 -s 9 -d -1 -p message -e 32 -c 2 -a 0 -i 16 -k RTR
r -t 0.849128415 -s 14 -d -1 -p message -e 32 -c 2 -a 0 -i 16 -k RTR
r -t 0.849128513 -s 21 -d -1 -p message -e 32 -c 2 -a 0 -i 16 -k RTR
r -t 0.849128614 -s 25 -d -1 -p message -e 32 -c 2 -a 0 -i 16 -k RTR
r -t 0.849128633 -s 20 -d -1 -p message -e 32 -c 2 -a 0 -i 16 -k RTR
r -t 0.849128813 -s 28 -d -1 -p message -e 32 -c 2 -a 0 -i 16 -k RTR
r -t 0.849129040 -s 19 -d -1 -p message -e 32 -c 2 -a 0 -i 16 -k RTR
r -t 0.849129048 -s 11 -d -1 -p message -e 32 -c 2 -a 0 -i 16 -k RTR
r -t 0.849129086 -s 26 -d -1 -p message -e 32 -c 2 -a 0 -i 16 -k RTR
+ -t 0.882674688 -s 4 -d -1 -p message -e 32 -c 2 -a 0 -i 17 -k RTR 
- -t 0.882674688 -s 4 -d -1 -p message -e 32 -c 2 -a 0 -i 17 -k RTR
h -t 0.882674688 -s 4 -d -1 -p message -e 32 -c 2 -a 0 -i 17 -k RTR
+ -t 0.882909688 -s 4 -d -1 -p message -e 90 -c 2 -a 0 -i 17 -k MAC 
- -t 0.882909688 -s 4 -d -1 -p message -e 90 -c 2 -a 0 -i 17 -k MAC
h -t 0.882909688 -s 4 -d -1 -p message -e 90 -c 2 -a 0 -i 17 -k MAC
r -t 0.883629875 -s 17 -d -1 -p message -e 32 -c 2 -a 0 -i 17 -k MAC
r -t 0.883630150 -s 14 -d -1 -p message -e 32 -c 2 -a 0 -i 17 -k MAC
r -t 0.883630389 -s 25 -d -1 -p message -e 32 -c 2 -a 0 -i 17 -k MAC
r -t 0.883630423 -s 9 -d -1 -p message -e 32 -c 2 -a 0 -i 17 -k MAC
r -t 0.883630617 -s 21 -d -1 -p message -e 32 -c 2 -a 0 -i 17 -k MAC
r -t 0.883630736 -s 20 -d -1 -p message -e 32 -c 2 -a 0 -i 17 -k MAC
r -t 0.883630773 -s 19 -d -1 -p message -e 32 -c 2 -a 0 -i 17 -k MAC
r -t 0.883630905 -s 28 -d -1 -p message -e 32 -c 2 -a 0 -i 17 -k MAC
r -t 0.883630986 -s 8 -d -1 -p message -e 32 -c 2 -a 0 -i 17 -k MAC
r -t 0.883654875 -s 17 -d -1 -p message -e 32 -c 2 -a 0 -i 17 -k RTR
r -t 0.883655150 -s 14 -d -1 -p message -e 32 -c 2 -a 0 -i 17 -k RTR
r -t 0.883655389 -s 25 -d -1 -p message -e 32 -c 2 -a 0 -i 17 -k RTR
r -t 0.883655423 -s 9 -d -1 -p message -e 32 -c 2 -a 0 -i 17 -k RTR
r -t 0.883655617 -s 21 -d -1 -p message -e 32 -c 2 -a 0 -i 17 -k RTR
r -t 0.883655736 -s 20 -d -1 -p message -e 32 -c 2 -a 0 -i 17 -k RTR
r -t 0.883655773 -s 19 -d -1 -p message -e 32 -c 2 -a 0 -i 17 -k RTR
r -t 0.883655905 -s 28 -d -1 -p message -e 32 -c 2 -a 0 -i 17 -k RTR
r -t 0.883655986 -s 8 -d -1 -p message -e 32 -c 2 -a 0 -i 17 -k RTR
+ -t 0.935449221 -s 25 -d -1 -p message -e 32 -c 2 -a 0 -i 18 -k RTR 
- -t 0.935449221 -s 25 -d -1 -p message -e 32 -c 2 -a 0 -i 18 -k RTR
h -t 0.935449221 -s 25 -d -1 -p message -e 32 -c 2 -a 0 -i 18 -k RTR
+ -t 0.935884221 -s 25 -d -1 -p message -e 90 -c 2 -a 0 -i 18 -k MAC 
- -t 0.935884221 -s 25 -d -1 -p message -e 90 -c 2 -a 0 -i 18 -k MAC
h -t 0.935884221 -s 25 -d -1 -p message -e 90 -c 2 -a 0 -i 18 -k MAC
r -t 0.936604589 -s 14 -d -1 -p message -e 32 -c 2 -a 0 -i 18 -k MAC
r -t 0.936604847 -s 19 -d -1 -p message -e 32 -c 2 -a 0 -i 18 -k MAC
r -t 0.936604922 -s 4 -d -1 -p message -e 32 -c 2 -a 0 -i 18 -k MAC
r -t 0.936605024 -s 10 -d -1 -p message -e 32 -c 2 -a 0 -i 18 -k MAC
r -t 0.936605063 -s 17 -d -1 -p message -e 32 -c 2 -a 0 -i 18 -k MAC
r -t 0.936605128 -s 6 -d -1 -p message -e 32 -c 2 -a 0 -i 18 -k MAC
r -t 0.936605442 -s 8 -d -1 -p message -e 32 -c 2 -a 0 -i 18 -k MAC
r -t 0.936629589 -s 14 -d -1 -p message -e 32 -c 2 -a 0 -i 18 -k RTR
r -t 0.936629847 -s 19 -d -1 -p message -e 32 -c 2 -a 0 -i 18 -k RTR
r -t 0.936629922 -s 4 -d -1 -p message -e 32 -c 2 -a 0 -i 18 -k RTR
r -t 0.936630024 -s 10 -d -1 -p message -e 32 -c 2 -a 0 -i 18 -k RTR
r -t 0.936630063 -s 17 -d -1 -p message -e 32 -c 2 -a 0 -i 18 -k RTR
r -t 0.936630128 -s 6 -d -1 -p message -e 32 -c 2 -a 0 -i 18 -k RTR
r -t 0.936630442 -s 8 -d -1 -p message -e 32 -c 2 -a 0 -i 18 -k RTR
+ -t 1.039009780 -s 24 -d -1 -p message -e 32 -c 2 -a 0 -i 19 -k RTR 
- -t 1.039009780 -s 24 -d -1 -p message -e 32 -c 2 -a 0 -i 19 -k RTR
h -t 1.039009780 -s 24 -d -1 -p message -e 32 -c 2 -a 0 -i 19 -k RTR
+ -t 1.039404780 -s 24 -d -1 -p message -e 90 -c 2 -a 0 -i 19 -k MAC 
- -t 1.039404780 -s 24 -d -1 -p message -e 90 -c 2 -a 0 -i 19 -k MAC
h -t 1.039404780 -s 24 -d -1 -p message -e 90 -c 2 -a 0 -i 19 -k MAC
r -t 1.040125871 -s 16 -d -1 -p message -e 32 -c 2 -a 0 -i 19 -k MAC
r -t 1.040150871 -s 16 -d -1 -p message -e 32 -c 2 -a 0 -i 19 -k RTR
+ -t 1.119657716 -s 1 -d -1 -p message -e 32 -c 2 -a 0 -i 20 -k RTR 
- -t 1.119657716 -s 1 -d -1 -p message -e 32 -c 2 -a 0 -i 20 -k RTR
h -t 1.119657716 -s 1 -d -1 -p message -e 32 -c 2 -a 0 -i 20 -k RTR
+ -t 1.119832716 -s 1 -d -1 -p message -e 90 -c 2 -a 0 -i 20 -k MAC 
- -t 1.119832716 -s 1 -d -1 -p message -e 90 -c 2 -a 0 -i 20 -k MAC
h -t 1.119832716 -s 1 -d -1 -p message -e 90 -c 2 -a 0 -i 20 -k MAC
r -t 1.120553480 -s 5 -d -1 -p message -e 32 -c 2 -a 0 -i 20 -k MAC
r -t 1.120553553 -s 3 -d -1 -p message -e 32 -c 2 -a 0 -i 20 -k MAC
r -t 1.120553623 -s 13 -d -1 -p message -e 32 -c 2 -a 0 -i 20 -k MAC
r -t 1.120578480 -s 5 -d -1 -p message -e 32 -c 2 -a 0 -i 20 -k RTR
r -t 1.120578553 -s 3 -d -1 -p message -e 32 -c 2 -a 0 -i 20 -k RTR
r -t 1.120578623 -s 13 -d -1 -p message -e 32 -c 2 -a 0 -i 20 -k RTR
+ -t 1.277890258 -s 9 -d -1 -p message -e 32 -c 2 -a 0 -i 21 -k RTR 