n -t * -s 0  -x 1276.02 -y 1317.6099999999999 -Z 0 -z 100  -v circle -c black
n -t * -s 1  -x 1147.9100000000001 -y 1360.7 -Z 0 -z 100  -v circle -c black
n -t * -s 2  -x 956.08000000000004 -y 510.19 -Z 0 -z 100  -v circle -c black
n -t * -s 3  -x 238.16 -y 478.56999999999999 -Z 0 -z 100  -v circle -c black
n -t * -s 4  -x 784.25999999999999 -y 215.68000000000001 -Z 0 -z 100  -v circle -c black
n -t * -s 5  -x 1285.3699999999999 -y 579.82000000000005 -Z 0 -z 100  -v circle -c black
n -t * -s 6  -x 1220.21 -y 946.14999999999998 -Z 0 -z 100  -v circle -c black
n -t * -s 7  -x 1003.05 -y 538.16999999999996 -Z 0 -z 100  -v circle -c black
n -t * -s 8  -x 897.65999999999997 -y 93.329999999999998 -Z 0 -z 100  -v circle -c black
n -t * -s 9  -x 64.75 -y 1261.1199999999999 -Z 0 -z 100  -v circle -c black
n -t * -s 10  -x 429.74000000000001 -y 419.08999999999997 -Z 0 -z 100  -v circle -c black
n -t * -s 11  -x 79.120000000000005 -y 549.14999999999998 -Z 0 -z 100  -v circle -c black
n -t * -s 12  -x 1004.85 -y 554.84000000000003 -Z 0 -z 100  -v circle -c black
n -t * -s 13  -x 262.74000000000001 -y 492.27999999999997 -Z 0 -z 100  -v circle -c black
n -t * -s 14  -x 1306.4200000000001 -y 702.50999999999999 -Z 0 -z 100  -v circle -c black
n -t * -s 15  -x 292.68000000000001 -y 1122.3099999999999 -Z 0 -z 100  -v circle -c black
n -t * -s 16  -x 643.09000000000003 -y 861.14999999999998 -Z 0 -z 100  -v circle -c black
n -t * -s 17  -x 267.24000000000001 -y 741.22000000000003 -Z 0 -z 100  -v circle -c black
n -t * -s 18  -x 648.72000000000003 -y 284.80000000000001 -Z 0 -z 100  -v circle -c black
n -t * -s 19  -x 733.94000000000005 -y 938.34000000000003 -Z 0 -z 100  -v circle -c black
n -t * -s 20  -x 843.75999999999999 -y 388.64999999999998 -Z 0 -z 100  -v circle -c black
n -t * -s 21  -x 379.98000000000002 -y 507.61000000000001 -Z 0 -z 100  -v circle -c black
n -t * -s 22  -x 956.28999999999996 -y 1127.1300000000001 -Z 0 -z 100  -v circle -c black
n -t * -s 23  -x 1180.7 -y 836.61000000000001 -Z 0 -z 100  -v circle -c black
n -t * -s 24  -x 990.61000000000001 -y 671.13 -Z 0 -z 100  -v circle -c black
n -t * -s 25  -x 986.70000000000005 -y 503.22000000000003 -Z 0 -z 100  -v circle -c black
n -t * -s 26  -x 1294.77 -y 1097.9200000000001 -Z 0 -z 100  -v circle -c black
n -t * -s 27  -x 0 -y 0 -Z 0 -z 100  -v circle -c black
n -t * -s 28  -x 0 -y 1000 -Z 0 -z 100  -v circle -c black
n -t * -s 29  -x 1000 -y 0 -Z 0 -z 100  -v circle -c black
V -t * -v 1.0a5 -a 0
W -t * -x 1700 -y 1700
A -t * -n 1 -p 0 -o 0x7fffffff -c 30 -a 1
A -t * -h 1 -m 1073741823 -s 0
n -t 0.000000 -s 0 -x 1276.020000 -y 1317.610000 -U 0.000000 -V 0.000000 -T 0.000000
n -t 0.000000 -s 1 -x 1147.910000 -y 1360.700000 -U 0.000000 -V 0.000000 -T 0.000000
n -t 0.000000 -s 2 -x 956.080000 -y 510.190000 -U 0.000000 -V 0.000000 -T 0.000000
n -t 0.000000 -s 3 -x 238.160000 -y 478.570000 -U 0.000000 -V 0.000000 -T 0.000000
n -t 0.000000 -s 4 -x 784.260000 -y 215.680000 -U 0.000000 -V 0.000000 -T 0.000000
n -t 0.000000 -s 5 -x 1285.370000 -y 579.820000 -U 0.000000 -V 0.000000 -T 0.000000
n -t 0.000000 -s 6 -x 1220.210000 -y 946.150000 -U 0.000000 -V 0.000000 -T 0.000000
n -t 0.000000 -s 7 -x 1003.050000 -y 538.170000 -U 0.000000 -V 0.000000 -T 0.000000
n -t 0.000000 -s 8 -x 897.660000 -y 93.330000 -U 0.000000 -V 0.000000 -T 0.000000
n -t 0.000000 -s 9 -x 64.750000 -y 1261.120000 -U 0.000000 -V 0.000000 -T 0.000000
n -t 0.000000 -s 10 -x 429.740000 -y 419.090000 -U 0.000000 -V 0.000000 -T 0.000000
n -t 0.000000 -s 11 -x 79.120000 -y 549.150000 -U 0.000000 -V 0.000000 -T 0.000000
n -t 0.000000 -s 12 -x 1004.850000 -y 554.840000 -U 0.000000 -V 0.000000 -T 0.000000
n -t 0.000000 -s 13 -x 262.740000 -y 492.280000 -U 0.000000 -V 0.000000 -T 0.000000
n -t 0.000000 -s 14 -x 1306.420000 -y 702.510000 -U 0.000000 -V 0.000000 -T 0.000000
n -t 0.000000 -s 15 -x 292.680000 -y 1122.310000 -U 0.000000 -V 0.000000 -T 0.000000
n -t 0.000000 -s 16 -x 643.090000 -y 861.150000 -U 0.000000 -V 0.000000 -T 0.000000
n -t 0.000000 -s 17 -x 267.240000 -y 741.220000 -U 0.000000 -V 0.000000 -T 0.000000
n -t 0.000000 -s 18 -x 648.720000 -y 284.800000 -U 0.000000 -V 0.000000 -T 0.000000
n -t 0.000000 -s 19 -x 733.940000 -y 938.340000 -U 0.000000 -V 0.000000 -T 0.000000
n -t 0.000000 -s 20 -x 843.760000 -y 388.650000 -U 0.000000 -V 0.000000 -T 0.000000
n -t 0.000000 -s 21 -x 379.980000 -y 507.610000 -U 0.000000 -V 0.000000 -T 0.000000
n -t 0.000000 -s 22 -x 956.290000 -y 1127.130000 -U 0.000000 -V 0.000000 -T 0.000000
n -t 0.000000 -s 23 -x 1180.700000 -y 836.610000 -U 0.000000 -V 0.000000 -T 0.000000
n -t 0.000000 -s 24 -x 990.610000 -y 671.130000 -U 0.000000 -V 0.000000 -T 0.000000
n -t 0.000000 -s 25 -x 986.700000 -y 503.220000 -U 0.000000 -V 0.000000 -T 0.000000
n -t 0.000000 -s 26 -x 1294.770000 -y 1097.920000 -U 0.000000 -V 0.000000 -T 0.000000
n -t 0.000000 -s 0 -x 1276.020000 -y 1317.610000 -U 0.000000 -V 0.000000 -T 0.000000
n -t 0.000000 -s 1 -x 1147.910000 -y 1360.700000 -U 0.000000 -V 0.000000 -T 0.000000
+ -t 0.003091411 -s 0 -d -1 -p message -e 32 -c 2 -a 0 -i 0 -k RTR 
- -t 0.003091411 -s 0 -d -1 -p message -e 32 -c 2 -a 0 -i 0 -k RTR
h -t 0.003091411 -s 0 -d -1 -p message -e 32 -c 2 -a 0 -i 0 -k RTR
+ -t 0.003466411 -s 0 -d -1 -p message -e 90 -c 2 -a 0 -i 0 -k MAC 
- -t 0.003466411 -s 0 -d -1 -p message -e 90 -c 2 -a 0 -i 0 -k MAC
h -t 0.003466411 -s 0 -d -1 -p message -e 90 -c 2 -a 0 -i 0 -k MAC
r -t 0.004186861 -s 1 -d -1 -p message -e 32 -c 2 -a 0 -i 0 -k MAC
r -t 0.004187146 -s 26 -d -1 -p message -e 32 -c 2 -a 0 -i 0 -k MAC
r -t 0.004187651 -s 22 -d -1 -p message -e 32 -c 2 -a 0 -i 0 -k MAC
r -t 0.004187663 -s 6 -d -1 -p message -e 32 -c 2 -a 0 -i 0 -k MAC
r -t 0.004211861 -s 1 -d -1 -p message -e 32 -c 2 -a 0 -i 0 -k RTR
r -t 0.004212146 -s 26 -d -1 -p message -e 32 -c 2 -a 0 -i 0 -k RTR
r -t 0.004212651 -s 22 -d -1 -p message -e 32 -c 2 -a 0 -i 0 -k RTR
r -t 0.004212663 -s 6 -d -1 -p message -e 32 -c 2 -a 0 -i 0 -k RTR
+ -t 0.037458776 -s 2 -d -1 -p message -e 32 -c 2 -a 0 -i 1 -k RTR 
- -t 0.037458776 -s 2 -d -1 -p message -e 32 -c 2 -a 0 -i 1 -k RTR
h -t 0.037458776 -s 2 -d -1 -p message -e 32 -c 2 -a 0 -i 1 -k RTR
+ -t 0.037813776 -s 2 -d -1 -p message -e 90 -c 2 -a 0 -i 1 -k MAC 
- -t 0.037813776 -s 2 -d -1 -p message -e 90 -c 2 -a 0 -i 1 -k MAC
h -t 0.037813776 -s 2 -d -1 -p message -e 90 -c 2 -a 0 -i 1 -k MAC
r -t 0.038533881 -s 25 -d -1 -p message -e 32 -c 2 -a 0 -i 1 -k MAC
r -t 0.038533958 -s 7 -d -1 -p message -e 32 -c 2 -a 0 -i 1 -k MAC
r -t 0.038533996 -s 12 -d -1 -p message -e 32 -c 2 -a 0 -i 1 -k MAC
r -t 0.038534325 -s 24 -d -1 -p message -e 32 -c 2 -a 0 -i 1 -k MAC
r -t 0.038534328 -s 20 -d -1 -p message -e 32 -c 2 -a 0 -i 1 -k MAC
r -t 0.038534898 -s 5 -d -1 -p message -e 32 -c 2 -a 0 -i 1 -k MAC
r -t 0.038534913 -s 4 -d -1 -p message -e 32 -c 2 -a 0 -i 1 -k MAC
r -t 0.038535046 -s 18 -d -1 -p message -e 32 -c 2 -a 0 -i 1 -k MAC
r -t 0.038535097 -s 23 -d -1 -p message -e 32 -c 2 -a 0 -i 1 -k MAC
r -t 0.038535108 -s 14 -d -1 -p message -e 32 -c 2 -a 0 -i 1 -k MAC
r -t 0.038558881 -s 25 -d -1 -p message -e 32 -c 2 -a 0 -i 1 -k RTR
r -t 0.038558958 -s 7 -d -1 -p message -e 32 -c 2 -a 0 -i 1 -k RTR
r -t 0.038558996 -s 12 -d -1 -p message -e 32 -c 2 -a 0 -i 1 -k RTR
r -t 0.038559325 -s 24 -d -1 -p message -e 32 -c 2 -a 0 -i 1 -k RTR
r -t 0.038559328 -s 20 -d -1 -p message -e 32 -c 2 -a 0 -i 1 -k RTR
r -t 0.038559898 -s 5 -d -1 -p message -e 32 -c 2 -a 0 -i 1 -k RTR
r -t 0.038559913 -s 4 -d -1 -p message -e 32 -c 2 -a 0 -i 1 -k RTR
r -t 0.038560046 -s 18 -d -1 -p message -e 32 -c 2 -a 0 -i 1 -k RTR
r -t 0.038560097 -s 23 -d -1 -p message -e 32 -c 2 -a 0 -i 1 -k RTR
r -t 0.038560108 -s 14 -d -1 -p message -e 32 -c 2 -a 0 -i 1 -k RTR
+ -t 0.087462768 -s 13 -d -1 -p message -e 32 -c 2 -a 0 -i 2 -k RTR 
- -t 0.087462768 -s 13 -d -1 -p message -e 32 -c 2 -a 0 -i 2 -k RTR
h -t 0.087462768 -s 13 -d -1 -p message -e 32 -c 2 -a 0 -i 2 -k RTR
+ -t 0.087757768 -s 13 -d -1 -p message -e 90 -c 2 -a 0 -i 2 -k MAC 
- -t 0.087757768 -s 13 -d -1 -p message -e 90 -c 2 -a 0 -i 2 -k MAC
h -t 0.087757768 -s 13 -d -1 -p message -e 90 -c 2 -a 0 -i 2 -k MAC
r -t 0.088477862 -s 3 -d -1 -p message -e 32 -c 2 -a 0 -i 2 -k MAC
r -t 0.088478162 -s 21 -d -1 -p message -e 32 -c 2 -a 0 -i 2 -k MAC
r -t 0.088478376 -s 10 -d -1 -p message -e 32 -c 2 -a 0 -i 2 -k MAC
r -t 0.088478409 -s 11 -d -1 -p message -e 32 -c 2 -a 0 -i 2 -k MAC
r -t 0.088478598 -s 17 -d -1 -p message -e 32 -c 2 -a 0 -i 2 -k MAC
r -t 0.088502862 -s 3 -d -1 -p message -e 32 -c 2 -a 0 -i 2 -k RTR
r -t 0.088503162 -s 21 -d -1 -p message -e 32 -c 2 -a 0 -i 2 -k RTR
r -t 0.088503376 -s 10 -d -1 -p message -e 32 -c 2 -a 0 -i 2 -k RTR
r -t 0.088503409 -s 11 -d -1 -p message -e 32 -c 2 -a 0 -i 2 -k RTR
r -t 0.088503598 -s 17 -d -1 -p message -e 32 -c 2 -a 0 -i 2 -k RTR
+ -t 0.177365656 -s 3 -d -1 -p message -e 32 -c 2 -a 0 -i 3 -k RTR 
- -t 0.177365656 -s 3 -d -1 -p message -e 32 -c 2 -a 0 -i 3 -k RTR
h -t 0.177365656 -s 3 -d -1 -p message -e 32 -c 2 -a 0 -i 3 -k RTR
+ -t 0.177560656 -s 3 -d -1 -p message -e 90 -c 2 -a 0 -i 3 -k MAC 
- -t 0.177560656 -s 3 -d -1 -p message -e 90 -c 2 -a 0 -i 3 -k MAC
h -t 0.177560656 -s 3 -d -1 -p message -e 90 -c 2 -a 0 -i 3 -k MAC
r -t 0.178280750 -s 13 -d -1 -p message -e 32 -c 2 -a 0 -i 3 -k MAC
r -t 0.178281138 -s 21 -d -1 -p message -e 32 -c 2 -a 0 -i 3 -k MAC
r -t 0.178281236 -s 11 -d -1 -p message -e 32 -c 2 -a 0 -i 3 -k MAC
r -t 0.178281324 -s 10 -d -1 -p message -e 32 -c 2 -a 0 -i 3 -k MAC
r -t 0.178281537 -s 17 -d -1 -p message -e 32 -c 2 -a 0 -i 3 -k MAC
r -t 0.178305750 -s 13 -d -1 -p message -e 32 -c 2 -a 0 -i 3 -k RTR
r -t 0.178306138 -s 21 -d -1 -p message -e 32 -c 2 -a 0 -i 3 -k RTR
r -t 0.178306236 -s 11 -d -1 -p message -e 32 -c 2 -a 0 -i 3 -k RTR
r -t 0.178306324 -s 10 -d -1 -p message -e 32 -c 2 -a 0 -i 3 -k RTR
r -t 0.178306537 -s 17 -d -1 -p message -e 32 -c 2 -a 0 -i 3 -k RTR
+ -t 0.191634337 -s 19 -d -1 -p message -e 32 -c 2 -a 0 -i 4 -k RTR 
- -t 0.191634337 -s 19 -d -1 -p message -e 32 -c 2 -a 0 -i 4 -k RTR
h -t 0.191634337 -s 19 -d -1 -p message -e 32 -c 2 -a 0 -i 4 -k RTR
+ -t 0.191889337 -s 19 -d -1 -p message -e 90 -c 2 -a 0 -i 4 -k MAC 
- -t 0.191889337 -s 19 -d -1 -p message -e 90 -c 2 -a 0 -i 4 -k MAC
h -t 0.191889337 -s 19 -d -1 -p message -e 90 -c 2 -a 0 -i 4 -k MAC
r -t 0.192609734 -s 16 -d -1 -p message -e 32 -c 2 -a 0 -i 4 -k MAC
r -t 0.192610309 -s 22 -d -1 -p message -e 32 -c 2 -a 0 -i 4 -k MAC
r -t 0.192610572 -s 24 -d -1 -p message -e 32 -c 2 -a 0 -i 4 -k MAC
r -t 0.192634734 -s 16 -d -1 -p message -e 32 -c 2 -a 0 -i 4 -k RTR
r -t 0.192635309 -s 22 -d -1 -p message -e 32 -c 2 -a 0 -i 4 -k RTR
r -t 0.192635572 -s 24 -d -1 -p message -e 32 -c 2 -a 0 -i 4 -k RTR
+ -t 0.234603229 -s 15 -d -1 -p message -e 32 -c 2 -a 0 -i 5 -k RTR 
- -t 0.234603229 -s 15 -d -1 -p message -e 32 -c 2 -a 0 -i 5 -k RTR
h -t 0.234603229 -s 15 -d -1 -p message -e 32 -c 2 -a 0 -i 5 -k RTR
+ -t 0.234898229 -s 15 -d -1 -p message -e 90 -c 2 -a 0 -i 5 -k MAC 
- -t 0.234898229 -s 15 -d -1 -p message -e 90 -c 2 -a 0 -i 5 -k MAC
h -t 0.234898229 -s 15 -d -1 -p message -e 90 -c 2 -a 0 -i 5 -k MAC
r -t 0.235619119 -s 9 -d -1 -p message -e 32 -c 2 -a 0 -i 5 -k MAC
r -t 0.235619287 -s 28 -d -1 -p message -e 32 -c 2 -a 0 -i 5 -k MAC
r -t 0.235619503 -s 17 -d -1 -p message -e 32 -c 2 -a 0 -i 5 -k MAC
r -t 0.235644119 -s 9 -d -1 -p message -e 32 -c 2 -a 0 -i 5 -k RTR
r -t 0.235644287 -s 28 -d -1 -p message -e 32 -c 2 -a 0 -i 5 -k RTR
r -t 0.235644503 -s 17 -d -1 -p message -e 32 -c 2 -a 0 -i 5 -k RTR
+ -t 0.333839210 -s 12 -d -1 -p message -e 32 -c 2 -a 0 -i 6 -k RTR 
- -t 0.333839210 -s 12 -d -1 -p message -e 32 -c 2 -a 0 -i 6 -k RTR
h -t 0.333839210 -s 12 -d -1 -p message -e 32 -c 2 -a 0 -i 6 -k RTR
+ -t 0.333994210 -s 12 -d -1 -p message -e 90 -c 2 -a 0 -i 6 -k MAC 
- -t 0.333994210 -s 12 -d -1 -p message -e 90 -c 2 -a 0 -i 6 -k MAC
h -t 0.333994210 -s 12 -d -1 -p message -e 90 -c 2 -a 0 -i 6 -k MAC
r -t 0.334714266 -s 7 -d -1 -p message -e 32 -c 2 -a 0 -i 6 -k MAC
r -t 0.334714392 -s 25 -d -1 -p message -e 32 -c 2 -a 0 -i 6 -k MAC
r -t 0.334714430 -s 2 -d -1 -p message -e 32 -c 2 -a 0 -i 6 -k MAC
r -t 0.334714600 -s 24 -d -1 -p message -e 32 -c 2 -a 0 -i 6 -k MAC
r -t 0.334714981 -s 20 -d -1 -p message -e 32 -c 2 -a 0 -i 6 -k MAC
r -t 0.334715149 -s 5 -d -1 -p message -e 32 -c 2 -a 0 -i 6 -k MAC
r -t 0.334715317 -s 23 -d -1 -p message -e 32 -c 2 -a 0 -i 6 -k MAC
r -t 0.334715329 -s 14 -d -1 -p message -e 32 -c 2 -a 0 -i 6 -k MAC
r -t 0.334739266 -s 7 -d -1 -p message -e 32 -c 2 -a 0 -i 6 -k RTR
r -t 0.334739392 -s 25 -d -1 -p message -e 32 -c 2 -a 0 -i 6 -k RTR
r -t 0.334739430 -s 2 -d -1 -p message -e 32 -c 2 -a 0 -i 6 -k RTR
r -t 0.334739600 -s 24 -d -1 -p message -e 32 -c 2 -a 0 -i 6 -k RTR
r -t 0.334739981 -s 20 -d -1 -p message -e 32 -c 2 -a 0 -i 6 -k RTR
r -t 0.334740149 -s 5 -d -1 -p message -e 32 -c 2 -a 0 -i 6 -k RTR
r -t 0.334740317 -s 23 -d -1 -p message -e 32 -c 2 -a 0 -i 6 -k RTR
r -t 0.334740329 -s 14 -d -1 -p message -e 32 -c 2 -a 0 -i 6 -k RTR
+ -t 0.351472650 -s 18 -d -1 -p message -e 32 -c 2 -a 0 -i 7 -k RTR 
- -t 0.351472650 -s 18 -d -1 -p message -e 32 -c 2 -a 0 -i 7 -k RTR
h -t 0.351472650 -s 18 -d -1 -p message -e 32 -c 2 -a 0 -i 7 -k RTR
+ -t 0.351847650 -s 18 -d -1 -p message -e 90 -c 2 -a 0 -i 7 -k MAC 
- -t 0.351847650 -s 18 -d -1 -p message -e 90 -c 2 -a 0 -i 7 -k MAC
h -t 0.351847650 -s 18 -d -1 -p message -e 90 -c 2 -a 0 -i 7 -k MAC
r -t 0.352568157 -s 4 -d -1 -p message -e 32 -c 2 -a 0 -i 7 -k MAC
r -t 0.352568387 -s 20 -d -1 -p message -e 32 -c 2 -a 0 -i 7 -k MAC
r -t 0.352568506 -s 10 -d -1 -p message -e 32 -c 2 -a 0 -i 7 -k MAC
r -t 0.352568697 -s 8 -d -1 -p message -e 32 -c 2 -a 0 -i 7 -k MAC
r -t 0.352568814 -s 21 -d -1 -p message -e 32 -c 2 -a 0 -i 7 -k MAC
r -t 0.352568921 -s 2 -d -1 -p message -e 32 -c 2 -a 0 -i 7 -k MAC
r -t 0.352593157 -s 4 -d -1 -p message -e 32 -c 2 -a 0 -i 7 -k RTR
r -t 0.352593387 -s 20 -d -1 -p message -e 32 -c 2 -a 0 -i 7 -k RTR
r -t 0.352593506 -s 10 -d -1 -p message -e 32 -c 2 -a 0 -i 7 -k RTR
r -t 0.352593697 -s 8 -d -1 -p message -e 32 -c 2 -a 0 -i 7 -k RTR
r -t 0.352593814 -s 21 -d -1 -p message -e 32 -c 2 -a 0 -i 7 -k RTR
r -t 0.352593921 -s 2 -d -1 -p message -e 32 -c 2 -a 0 -i 7 -k RTR
+ -t 0.436386259 -s 29 -d -1 -p message -e 32 -c 2 -a 0 -i 8 -k RTR 
- -t 0.436386259 -s 29 -d -1 -p message -e 32 -c 2 -a 0 -i 8 -k RTR
h -t 0.436386259 -s 29 -d -1 -p message -e 32 -c 2 -a 0 -i 8 -k RTR
+ -t 0.436701259 -s 29 -d -1 -p message -e 90 -c 2 -a 0 -i 8 -k MAC 
- -t 0.436701259 -s 29 -d -1 -p message -e 90 -c 2 -a 0 -i 8 -k MAC
h -t 0.436701259 -s 29 -d -1 -p message -e 90 -c 2 -a 0 -i 8 -k MAC
r -t 0.437421721 -s 8 -d -1 -p message -e 32 -c 2 -a 0 -i 8 -k MAC
r -t 0.437422276 -s 4 -d -1 -p message -e 32 -c 2 -a 0 -i 8 -k MAC
r -t 0.437446721 -s 8 -d -1 -p message -e 32 -c 2 -a 0 -i 8 -k RTR
r -t 0.437447276 -s 4 -d -1 -p message -e 32 -c 2 -a 0 -i 8 -k RTR
+ -t 0.470117073 -s 8 -d -1 -p message -e 32 -c 2 -a 0 -i 9 -k RTR 
- -t 0.470117073 -s 8 -d -1 -p message -e 32 -c 2 -a 0 -i 9 -k RTR
h -t 0.470117073 -s 8 -d -1 -p message -e 32 -c 2 -a 0 -i 9 -k RTR
+ -t 0.470652073 -s 8 -d -1 -p message -e 90 -c 2 -a 0 -i 9 -k MAC 
- -t 0.470652073 -s 8 -d -1 -p message -e 90 -c 2 -a 0 -i 9 -k MAC
h -t 0.470652073 -s 8 -d -1 -p message -e 90 -c 2 -a 0 -i 9 -k MAC
r -t 0.471372535 -s 29 -d -1 -p message -e 32 -c 2 -a 0 -i 9 -k MAC
r -t 0.471372629 -s 4 -d -1 -p message -e 32 -c 2 -a 0 -i 9 -k MAC
r -t 0.471373074 -s 20 -d -1 -p message -e 32 -c 2 -a 0 -i 9 -k MAC
r -t 0.471373120 -s 18 -d -1 -p message -e 32 -c 2 -a 0 -i 9 -k MAC
r -t 0.471397535 -s 29 -d -1 -p message -e 32 -c 2 -a 0 -i 9 -k RTR
r -t 0.471397629 -s 4 -d -1 -p message -e 32 -c 2 -a 0 -i 9 -k RTR
r -t 0.471398074 -s 20 -d -1 -p message -e 32 -c 2 -a 0 -i 9 -k RTR
r -t 0.471398120 -s 18 -d -1 -p message -e 32 -c 2 -a 0 -i 9 -k RTR
+ -t 0.521504883 -s 22 -d -1 -p message -e 32 -c 2 -a 0 -i 10 -k RTR 
- -t 0.521504883 -s 22 -d -1 -p message -e 32 -c 2 -a 0 -i 10 -k RTR
h -t 0.521504883 -s 22 -d -1 -p message -e 32 -c 2 -a 0 -i 10 -k RTR
+ -t 0.521659883 -s 22 -d -1 -p message -e 90 -c 2 -a 0 -i 10 -k MAC 
- -t 0.521659883 -s 22 -d -1 -p message -e 90 -c 2 -a 0 -i 10 -k MAC
h -t 0.521659883 -s 22 -d -1 -p message -e 90 -c 2 -a 0 -i 10 -k MAC
r -t 0.522380855 -s 19 -d -1 -p message -e 32 -c 2 -a 0 -i 10 -k MAC
r -t 0.522380890 -s 1 -d -1 -p message -e 32 -c 2 -a 0 -i 10 -k MAC
r -t 0.522380950 -s 6 -d -1 -p message -e 32 -c 2 -a 0 -i 10 -k MAC
r -t 0.522381016 -s 26 -d -1 -p message -e 32 -c 2 -a 0 -i 10 -k MAC
r -t 0.522381107 -s 23 -d -1 -p message -e 32 -c 2 -a 0 -i 10 -k MAC
r -t 0.522381124 -s 0 -d -1 -p message -e 32 -c 2 -a 0 -i 10 -k MAC
r -t 0.522405855 -s 19 -d -1 -p message -e 32 -c 2 -a 0 -i 10 -k RTR
r -t 0.522405890 -s 1 -d -1 -p message -e 32 -c 2 -a 0 -i 10 -k RTR
r -t 0.522405950 -s 6 -d -1 -p message -e 32 -c 2 -a 0 -i 10 -k RTR
r -t 0.522406016 -s 26 -d -1 -p message -e 32 -c 2 -a 0 -i 10 -k RTR
r -t 0.522406107 -s 23 -d -1 -p message -e 32 -c 2 -a 0 -i 10 -k RTR
r -t 0.522406124 -s 0 -d -1 -p message -e 32 -c 2 -a 0 -i 10 -k RTR
+ -t 0.556838879 -s 28 -d -1 -p cbr -e 512 -c 2 -a 0 -i 11 -k AGT 
- -t 0.556838879 -s 28 -d -1 -p cbr -e 512 -c 2 -a 0 -i 11 -k AGT
h -t 0.556838879 -s 28 -d -1 -p cbr -e 512 -c 2 -a 0 -i 11 -k AGT
+ -t 0.627186592 -s 10 -d -1 -p message -e 32 -c 2 -a 0 -i 12 -k RTR 
- -t 0.627186592 -s 10 -d -1 -p message -e 32 -c 2 -a 0 -i 12 -k RTR
h -t 0.627186592 -s 10 -d -1 -p message -e 32 -c 2 -a 0 -i 12 -k RTR
+ -t 0.627321592 -s 10 -d -1 -p message -e 90 -c 2 -a 0 -i 12 -k MAC 
- -t 0.627321592 -s 10 -d -1 -p message -e 90 -c 2 -a 0 -i 12 -k MAC
h -t 0.627321592 -s 10 -d -1 -p message -e 90 -c 2 -a 0 -i 12 -k MAC
r -t 0.628041931 -s 21 -d -1 -p message -e 32 -c 2 -a 0 -i 12 -k MAC
r -t 0.628042200 -s 13 -d -1 -p message -e 32 -c 2 -a 0 -i 12 -k MAC
r -t 0.628042261 -s 3 -d -1 -p message -e 32 -c 2 -a 0 -i 12 -k MAC
r -t 0.628042448 -s 18 -d -1 -p message -e 32 -c 2 -a 0 -i 12 -k MAC
r -t 0.628042795 -s 17 -d -1 -p message -e 32 -c 2 -a 0 -i 12 -k MAC
r -t 0.628042839 -s 11 -d -1 -p message -e 32 -c 2 -a 0 -i 12 -k MAC
r -t 0.628066931 -s 21 -d -1 -p message -e 32 -c 2 -a 0 -i 12 -k RTR
r -t 0.628067200 -s 13 -d -1 -p message -e 32 -c 2 -a 0 -i 12 -k RTR
r -t 0.628067261 -s 3 -d -1 -p message -e 32 -c 2 -a 0 -i 12 -k RTR
r -t 0.628067448 -s 18 -d -1 -p message -e 32 -c 2 -a 0 -i 12 -k RTR
r -t 0.628067795 -s 17 -d -1 -p message -e 32 -c 2 -a 0 -i 12 -k RTR
r -t 0.628067839 -s 11 -d -1 -p message -e 32 -c 2 -a 0 -i 12 -k RTR
+ -t 0.634670006 -s 6 -d -1 -p message -e 32 -c 2 -a 0 -i 13 -k RTR 
- -t 0.634670006 -s 6 -d -1 -p message -e 32 -c 2 -a 0 -i 13 -k RTR
h -t 0.634670006 -s 6 -d -1 -p message -e 32 -c 2 -a 0 -i 13 -k RTR
+ -t 0.634865006 -s 6 -d -1 -p message -e 90 -c 2 -a 0 -i 13 -k MAC 
- -t 0.634865006 -s 6 -d -1 -p message -e 90 -c 2 -a 0 -i 13 -k MAC
h -t 0.634865006 -s 6 -d -1 -p message -e 90 -c 2 -a 0 -i 13 -k MAC
r -t 0.635585394 -s 23 -d -1 -p message -e 32 -c 2 -a 0 -i 13 -k MAC
r -t 0.635585570 -s 26 -d -1 -p message -e 32 -c 2 -a 0 -i 13 -k MAC
r -t 0.635585868 -s 14 -d -1 -p message -e 32 -c 2 -a 0 -i 13 -k MAC
r -t 0.635586073 -s 22 -d -1 -p message -e 32 -c 2 -a 0 -i 13 -k MAC
r -t 0.635586201 -s 24 -d -1 -p message -e 32 -c 2 -a 0 -i 13 -k MAC
r -t 0.635586247 -s 5 -d -1 -p message -e 32 -c 2 -a 0 -i 13 -k MAC
r -t 0.635586258 -s 0 -d -1 -p message -e 32 -c 2 -a 0 -i 13 -k MAC
r -t 0.635610394 -s 23 -d -1 -p message -e 32 -c 2 -a 0 -i 13 -k RTR
r -t 0.635610570 -s 26 -d -1 -p message -e 32 -c 2 -a 0 -i 13 -k RTR
r -t 0.635610868 -s 14 -d -1 -p message -e 32 -c 2 -a 0 -i 13 -k RTR
r -t 0.635611073 -s 22 -d -1 -p message -e 32 -c 2 -a 0 -i 13 -k RTR
r -t 0.635611201 -s 24 -d -1 -p message -e 32 -c 2 -a 0 -i 13 -k RTR
r -t 0.635611247 -s 5 -d -1 -p message -e 32 -c 2 -a 0 -i 13 -k RTR
r -t 0.635611258 -s 0 -d -1 -p message -e 32 -c 2 -a 0 -i 13 -k RTR
+ -t 0.705637875 -s 21 -d -1 -p message -e 32 -c 2 -a 0 -i 14 -k RTR 
- -t 0.705637875 -s 21 -d -1 -p message -e 32 -c 2 -a 0 -i 14 -k RTR
h -t 0.705637875 -s 21 -d -1 -p message -e 32 -c 2 -a 0 -i 14 -k RTR
+ -t 0.706012875 -s 21 -d -1 -p message -e 90 -c 2 -a 0 -i 14 -k MAC 
- -t 0.706012875 -s 21 -d -1 -p message -e 90 -c 2 -a 0 -i 14 -k MAC
h -t 0.706012875 -s 21 -d -1 -p message -e 90 -c 2 -a 0 -i 14 -k MAC
r -t 0.706733213 -s 10 -d -1 -p message -e 32 -c 2 -a 0 -i 14 -k MAC
r -t 0.706733269 -s 13 -d -1 -p message -e 32 -c 2 -a 0 -i 14 -k MAC
r -t 0.706733357 -s 3 -d -1 -p message -e 32 -c 2 -a 0 -i 14 -k MAC
r -t 0.706733739 -s 17 -d -1 -p message -e 32 -c 2 -a 0 -i 14 -k MAC
r -t 0.706733887 -s 11 -d -1 -p message -e 32 -c 2 -a 0 -i 14 -k MAC
r -t 0.706734038 -s 18 -d -1 -p message -e 32 -c 2 -a 0 -i 14 -k MAC
r -t 0.706758213 -s 10 -d -1 -p message -e 32 -c 2 -a 0 -i 14 -k RTR
r -t 0.706758269 -s 13 -d -1 -p message -e 32 -c 2 -a 0 -i 14 -k RTR
r -t 0.706758357 -s 3 -d -1 -p message -e 32 -c 2 -a 0 -i 14 -k RTR
r -t 0.706758739 -s 17 -d -1 -p message -e 32 -c 2 -a 0 -i 14 -k RTR
r -t 0.706758887 -s 11 -d -1 -p message -e 32 -c 2 -a 0 -i 14 -k RTR
r -t 0.706759038 -s 18 -d -1 -p message -e 32 -c 2 -a 0 -i 14 -k RTR
+ -t 0.821435127 -s 23 -d -1 -p message -e 32 -c 2 -a 0 -i 15 -k RTR 
- -t 0.821435127 -s 23 -d -1 -p message -e 32 -c 2 -a 0 -i 15 -k RTR
h -t 0.821435127 -s 23 -d -1 -p message -e 32 -c 2 -a 0 -i 15 -k RTR
+ -t 0.821550127 -s 23 -d -1 -p message -e 90 -c 2 -a 0 -i 15 -k MAC 
- -t 0.821550127 -s 23 -d -1 -p message -e 90 -c 2 -a 0 -i 15 -k MAC
h -t 0.821550127 -s 23 -d -1 -p message -e 90 -c 2 -a 0 -i 15 -k MAC
r -t 0.822270515 -s 6 -d -1 -p message -e 32 -c 2 -a 0 -i 15 -k MAC
r -t 0.822270740 -s 14 -d -1 -p message -e 32 -c 2 -a 0 -i 15 -k MAC
r -t 0.822270967 -s 24 -d -1 -p message -e 32 -c 2 -a 0 -i 15 -k MAC
r -t 0.822271052 -s 5 -d -1 -p message -e 32 -c 2 -a 0 -i 15 -k MAC
r -t 0.822271078 -s 26 -d -1 -p message -e 32 -c 2 -a 0 -i 15 -k MAC
r -t 0.822271234 -s 12 -d -1 -p message -e 32 -c 2 -a 0 -i 15 -k MAC
r -t 0.822271285 -s 7 -d -1 -p message -e 32 -c 2 -a 0 -i 15 -k MAC
r -t 0.822271351 -s 22 -d -1 -p message -e 32 -c 2 -a 0 -i 15 -k MAC
r -t 0.822271413 -s 25 -d -1 -p message -e 32 -c 2 -a 0 -i 15 -k MAC
r -t 0.822271448 -s 2 -d -1 -p message -e 32 -c 2 -a 0 -i 15 -k MAC
r -t 0.822295515 -s 6 -d -1 -p message -e 32 -c 2 -a 0 -i 15 -k RTR
r -t 0.822295740 -s 14 -d -1 -p message -e 32 -c 2 -a 0 -i 15 -k RTR
r -t 0.822295967 -s 24 -d -1 -p message -e 32 -c 2 -a 0 -i 15 -k RTR
r -t 0.822296052 -s 5 -d -1 -p message -e 32 -c 2 -a 0 -i 15 -k RTR
r -t 0.822296078 -s 26 -d -1 -p message -e 32 -c 2 -a 0 -i 15 -k RTR
r -t 0.822296234 -s 12 -d -1 -p message -e 32 -c 2 -a 0 -i 15 -k RTR
r -t 0.822296285 -s 7 -d -1 -p message -e 32 -c 2 -a 0 -i 15 -k RTR
r -t 0.822296351 -s 22 -d -1 -p message -e 32 -c 2 -a 0 -i 15 -k RTR
r -t 0.822296413 -s 25 -d -1 -p message -e 32 -c 2 -a 0 -i 15 -k RTR
r -t 0.822296448 -s 2 -d -1 -p message -e 32 -c 2 -a 0 -i 15 -k RTR
+ -t 0.848147771 -s 17 -d -1 -p message -e 32 -c 2 -a 0 -i 16 -k RTR 
- -t 0.848147771 -s 17 -d -1 -p message -e 32 -c 2 -a 0 -i 16 -k RTR
h -t 0.848147771 -s 17 -d -1 -p message -e 32 -c 2 -a 0 -i 16 -k RTR
+ -t 0.848382771 -s 17 -d -1 -p message -e 90 -c 2 -a 0 -i 16 -k MAC 
- -t 0.848382771 -s 17 -d -1 -p message -e 90 -c 2 -a 0 -i 16 -k MAC
h -t 0.848382771 -s 17 -d -1 -p message -e 90 -c 2 -a 0 -i 16 -k MAC
r -t 0.849103601 -s 13 -d -1 -p message -e 32 -c 2 -a 0 -i 16 -k MAC
r -t 0.849103636 -s 21 -d -1 -p message -e 32 -c 2 -a 0 -i 16 -k MAC
r -t 0.849103652 -s 3 -d -1 -p message -e 32 -c 2 -a 0 -i 16 -k MAC
r -t 0.849103668 -s 11 -d -1 -p message -e 32 -c 2 -a 0 -i 16 -k MAC
r -t 0.849103974 -s 10 -d -1 -p message -e 32 -c 2 -a 0 -i 16 -k MAC
r -t 0.849104011 -s 28 -d -1 -p message -e 32 -c 2 -a 0 -i 16 -k MAC
r -t 0.849104045 -s 15 -d -1 -p message -e 32 -c 2 -a 0 -i 16 -k MAC
r -t 0.849104087 -s 16 -d -1 -p message -e 32 -c 2 -a 0 -i 16 -k MAC
r -t 0.849128601 -s 13 -d -1 -p message -e 32 -c 2 -a 0 -i 16 -k RTR
r -t 0.849128636 -s 21 -d -1 -p message -e 32 -c 2 -a 0 -i 16 -k RTR
r -t 0.849128652 -s 3 -d -1 -p message -e 32 -c 2 -a 0 -i 16 -k RTR
r -t 0.849128668 -s 11 -d -1 -p message -e 32 -c 2 -a 0 -i 16 -k RTR
r -t 0.849128974 -s 10 -d -1 -p message -e 32 -c 2 -a 0 -i 16 -k RTR
r -t 0.849129011 -s 28 -d -1 -p message -e 32 -c 2 -a 0 -i 16 -k RTR
r -t 0.849129045 -s 15 -d -1 -p message -e 32 -c 2 -a 0 -i 16 -k RTR
r -t 0.849129087 -s 16 -d -1 -p message -e 32 -c 2 -a 0 -i 16 -k RTR
+ -t 0.882674688 -s 4 -d -1 -p message -e 32 -c 2 -a 0 -i 17 -k RTR 
- -t 0.882674688 -s 4 -d -1 -p message -e 32 -c 2 -a 0 -i 17 -k RTR
h -t 0.882674688 -s 4 -d -1 -p message -e 32 -c 2 -a 0 -i 17 -k RTR
+ -t 0.882909688 -s 4 -d -1 -p message -e 90 -c 2 -a 0 -i 17 -k MAC 
- -t 0.882909688 -s 4 -d -1 -p message -e 90 -c 2 -a 0 -i 17 -k MAC
h -t 0.882909688 -s 4 -d -1 -p message -e 90 -c 2 -a 0 -i 17 -k MAC
r -t 0.883630195 -s 18 -d -1 -p message -e 32 -c 2 -a 0 -i 17 -k MAC
r -t 0.883630244 -s 8 -d -1 -p message -e 32 -c 2 -a 0 -i 17 -k MAC
r -t 0.883630297 -s 20 -d -1 -p message -e 32 -c 2 -a 0 -i 17 -k MAC
r -t 0.883630705 -s 29 -d -1 -p message -e 32 -c 2 -a 0 -i 17 -k MAC
r -t 0.883630824 -s 2 -d -1 -p message -e 32 -c 2 -a 0 -i 17 -k MAC
r -t 0.883630860 -s 25 -d -1 -p message -e 32 -c 2 -a 0 -i 17 -k MAC
r -t 0.883630987 -s 7 -d -1 -p message -e 32 -c 2 -a 0 -i 17 -k MAC
r -t 0.883655195 -s 18 -d -1 -p message -e 32 -c 2 -a 0 -i 17 -k RTR
r -t 0.883655244 -s 8 -d -1 -p message -e 32 -c 2 -a 0 -i 17 -k RTR
r -t 0.883655297 -s 20 -d -1 -p message -e 32 -c 2 -a 0 -i 17 -k RTR
r -t 0.883655705 -s 29 -d -1 -p message -e 32 -c 2 -a 0 -i 17 -k RTR
r -t 0.883655824 -s 2 -d -1 -p message -e 32 -c 2 -a 0 -i 17 -k RTR
r -t 0.883655860 -s 25 -d -1 -p message -e 32 -c 2 -a 0 -i 17 -k RTR
r -t 0.883655987 -s 7 -d -1 -p message -e 32 -c 2 -a 0 -i 17 -k RTR
+ -t 0.935449221 -s 25 -d -1 -p message -e 32 -c 2 -a 0 -i 18 -k RTR 
- -t 0.935449221 -s 25 -d -1 -p message -e 32 -c 2 -a 0 -i 18 -k RTR
h -t 0.935449221 -s 25 -d -1 -p message -e 32 -c 2 -a 0 -i 18 -k RTR
+ -t 0.935884221 -s 25 -d -1 -p message -e 90 -c 2 -a 0 -i 18 -k MAC 
- -t 0.935884221 -s 25 -d -1 -p message -e 90 -c 2 -a 0 -i 18 -k MAC
h -t 0.935884221 -s 25 -d -1 -p message -e 90 -c 2 -a 0 -i 18 -k MAC
r -t 0.936604326 -s 2 -d -1 -p message -e 32 -c 2 -a 0 -i 18 -k MAC
r -t 0.936604350 -s 7 -d -1 -p message -e 32 -c 2 -a 0 -i 18 -k MAC
r -t 0.936604403 -s 12 -d -1 -p message -e 32 -c 2 -a 0 -i 18 -k MAC
r -t 0.936604781 -s 24 -d -1 -p message -e 32 -c 2 -a 0 -i 18 -k MAC
r -t 0.936604832 -s 20 -d -1 -p message -e 32 -c 2 -a 0 -i 18 -k MAC
r -t 0.936605249 -s 5 -d -1 -p message -e 32 -c 2 -a 0 -i 18 -k MAC
r -t 0.936605393 -s 4 -d -1 -p message -e 32 -c 2 -a 0 -i 18 -k MAC
r -t 0.936605477 -s 14 -d -1 -p message -e 32 -c 2 -a 0 -i 18 -k MAC
r -t 0.936605507 -s 23 -d -1 -p message -e 32 -c 2 -a 0 -i 18 -k MAC
r -t 0.936629326 -s 2 -d -1 -p message -e 32 -c 2 -a 0 -i 18 -k RTR
r -t 0.936629350 -s 7 -d -1 -p message -e 32 -c 2 -a 0 -i 18 -k RTR
r -t 0.936629403 -s 12 -d -1 -p message -e 32 -c 2 -a 0 -i 18 -k RTR
r -t 0.936629781 -s 24 -d -1 -p message -e 32 -c 2 -a 0 -i 18 -k RTR
r -t 0.936629832 -s 20 -d -1 -p message -e 32 -c 2 -a 0 -i 18 -k RTR
r -t 0.936630249 -s 5 -d -1 -p message -e 32 -c 2 -a 0 -i 18 -k RTR
r -t 0.936630393 -s 4 -d -1 -p message -e 32 -c 2 -a 0 -i 18 -k RTR
r -t 0.936630477 -s 14 -d -1 -p message -e 32 -c 2 -a 0 -i 18 -k RTR
r -t 0.936630507 -s 23 -d -1 -p message -e 32 -c 2 -a 0 -i 18 -k RTR
+ -t 1.039009780 -s 24 -d -1 -p message -e 32 -c 2 -a 0 -i 19 -k RTR 
- -t 1.039009780 -s 24 -d -1 -p message -e 32 -c 2 -a 0 -i 19 -k RTR
h -t 1.039009780 -s 24 -d -1 -p message -e 32 -c 2 -a 0 -i 19 -k RTR
+ -t 1.039404780 -s 24 -d -1 -p message -e 90 -c 2 -a 0 -i 19 -k MAC 
- -t 1.039404780 -s 24 -d -1 -p message -e 90 -c 2 -a 0 -i 19 -k MAC
h -t 1.039404780 -s 24 -d -1 -p message -e 90 -c 2 -a 0 -i 19 -k MAC
r -t 1.040125170 -s 12 -d -1 -p message -e 32 -c 2 -a 0 -i 19 -k MAC
r -t 1.040125225 -s 7 -d -1 -p message -e 32 -c 2 -a 0 -i 19 -k MAC
r -t 1.040125328 -s 2 -d -1 -p message -e 32 -c 2 -a 0 -i 19 -k MAC
r -t 1.040125340 -s 25 -d -1 -p message -e 32 -c 2 -a 0 -i 19 -k MAC
r -t 1.040125620 -s 23 -d -1 -p message -e 32 -c 2 -a 0 -i 19 -k MAC
r -t 1.040125808 -s 5 -d -1 -p message -e 32 -c 2 -a 0 -i 19 -k MAC
r -t 1.040125838 -s 14 -d -1 -p message -e 32 -c 2 -a 0 -i 19 -k MAC
r -t 1.040125841 -s 20 -d -1 -p message -e 32 -c 2 -a 0 -i 19 -k MAC
r -t 1.040125974 -s 6 -d -1 -p message -e 32 -c 2 -a 0 -i 19 -k MAC
r -t 1.040126015 -s 19 -d -1 -p message -e 32 -c 2 -a 0 -i 19 -k MAC
r -t 1.040126100 -s 16 -d -1 -p message -e 32 -c 2 -a 0 -i 19 -k MAC
r -t 1.040150170 -s 12 -d -1 -p message -e 32 -c 2 -a 0 -i 19 -k RTR
r -t 1.040150225 -s 7 -d -1 -p message -e 32 -c 2 -a 0 -i 19 -k RTR
r -t 1.040150328 -s 2 -d -1 -p message -e 32 -c 2 -a 0 -i 19 -k RTR
r -t 1.040150340 -s 25 -d -1 -p message -e 32 -c 2 -a 0 -i 19 -k RTR
r -t 1.040150620 -s 23 -d -1 -p message -e 32 -c 2 -a 0 -i 19 -k RTR
r -t 1.040150808 -s 5 -d -1 -p message -e 32 -c 2 -a 0 -i 19 -k RTR
r -t 1.040150838 -s 14 -d -1 -p message -e 32 -c 2 -a 0 -i 19 -k RTR
r -t 1.040150841 -s 20 -d -1 -p message -e 32 -c 2 -a 0 -i 19 -k RTR
r -t 1.040150974 -s 6 -d -1 -p message -e 32 -c 2 -a 0 -i 19 -k RTR
r -t 1.040151015 -s 19 -d -1 -p message -e 32 -c 2 -a 0 -i 19 -k RTR
r -t 1.040151100 -s 16 -d -1 -p message -e 32 -c 2 -a 0 -i 19 -k RTR
+ -t 1.119657716 -s 1 -d -1 -p message -e 32 -c 2 -a 0 -i 20 -k RTR 
- -t 1.119657716 -s 1 -d -1 -p message -e 32 -c 2 -a 0 -i 20 -k RTR
h -t 1.119657716 -s 1 -d -1 -p message -e 32 -c 2 -a 0 -i 20 -k RTR
+ -t 1.119832716 -s 1 -d -1 -p message -e 90 -c 2 -a 0 -i 20 -k MAC 
- -t 1.119832716 -s 1 -d -1 -p message -e 90 -c 2 -a 0 -i 20 -k MAC
h -t 1.119832716 -s 1 -d -1 -p message -e 90 -c 2 -a 0 -i 20 -k MAC
r -t 1.120553166 -s 0 -d -1 -p message -e 32 -c 2 -a 0 -i 20 -k MAC
r -t 1.120553719 -s 26 -d -1 -p message -e 32 -c 2 -a 0 -i 20 -k MAC