n -t * -s 0  -x 1119.21 -y 859.01999999999998 -Z 0 -z 100  -v circle -c black
n -t * -s 1  -x 548.36000000000001 -y 416.25999999999999 -Z 0 -z 100  -v circle -c black
n -t * -s 2  -x 285.43000000000001 -y 368.61000000000001 -Z 0 -z 100  -v circle -c black
n -t * -s 3  -x 635.91999999999996 -y 7.9299999999999997 -Z 0 -z 100  -v circle -c black
n -t * -s 4  -x 844.62 -y 86.269999999999996 -Z 0 -z 100  -v circle -c black
n -t * -s 5  -x 619.99000000000001 -y 754.11000000000001 -Z 0 -z 100  -v circle -c black
n -t * -s 6  -x 1062.6600000000001 -y 496.37 -Z 0 -z 100  -v circle -c black
n -t * -s 7  -x 457.35000000000002 -y 967.37 -Z 0 -z 100  -v circle -c black
n -t * -s 8  -x 798.13 -y 801.75999999999999 -Z 0 -z 100  -v circle -c black
n -t * -s 9  -x 891.34000000000003 -y 229.40000000000001 -Z 0 -z 100  -v circle -c black
n -t * -s 10  -x 44.799999999999997 -y 1016.78 -Z 0 -z 100  -v circle -c black
n -t * -s 11  -x 923.47000000000003 -y 225.61000000000001 -Z 0 -z 100  -v circle -c black
n -t * -s 12  -x 1071.3900000000001 -y 253.19999999999999 -Z 0 -z 100  -v circle -c black
n -t * -s 13  -x 802.77999999999997 -y 783.33000000000004 -Z 0 -z 100  -v circle -c black
n -t * -s 14  -x 1056.8399999999999 -y 814.27999999999997 -Z 0 -z 100  -v circle -c black
n -t * -s 15  -x 415.43000000000001 -y 740.84000000000003 -Z 0 -z 100  -v circle -c black
n -t * -s 16  -x 1032.3399999999999 -y 1239.03 -Z 0 -z 100  -v circle -c black
n -t * -s 17  -x 310.56999999999999 -y 1227.8399999999999 -Z 0 -z 100  -v circle -c black
n -t * -s 18  -x 671.11000000000001 -y 777.41999999999996 -Z 0 -z 100  -v circle -c black
n -t * -s 19  -x 773.41999999999996 -y 321.38 -Z 0 -z 100  -v circle -c black
n -t * -s 20  -x 762.71000000000004 -y 848.38999999999999 -Z 0 -z 100  -v circle -c black
n -t * -s 21  -x 1108.3 -y 1226.3900000000001 -Z 0 -z 100  -v circle -c black
n -t * -s 22  -x 554.10000000000002 -y 161.84999999999999 -Z 0 -z 100  -v circle -c black
n -t * -s 23  -x 164.25999999999999 -y 291.47000000000003 -Z 0 -z 100  -v circle -c black
n -t * -s 24  -x 398.17000000000002 -y 307.63 -Z 0 -z 100  -v circle -c black
n -t * -s 25  -x 723.65999999999997 -y 315.29000000000002 -Z 0 -z 100  -v circle -c black
n -t * -s 26  -x 0 -y 0 -Z 0 -z 100  -v circle -c black
n -t * -s 27  -x 0 -y 0 -Z 0 -z 100  -v circle -c black
n -t * -s 28  -x 0 -y 1000 -Z 0 -z 100  -v circle -c black
n -t * -s 29  -x 1000 -y 0 -Z 0 -z 100  -v circle -c black
V -t * -v 1.0a5 -a 0
W -t * -x 1700 -y 1700
A -t * -n 1 -p 0 -o 0x7fffffff -c 30 -a 1
A -t * -h 1 -m 1073741823 -s 0
n -t 0.000000 -s 0 -x 1119.210000 -y 859.020000 -U 0.000000 -V 0.000000 -T 0.000000
n -t 0.000000 -s 1 -x 548.360000 -y 416.260000 -U 0.000000 -V 0.000000 -T 0.000000
n -t 0.000000 -s 2 -x 285.430000 -y 368.610000 -U 0.000000 -V 0.000000 -T 0.000000
n -t 0.000000 -s 3 -x 635.920000 -y 7.930000 -U 0.000000 -V 0.000000 -T 0.000000
n -t 0.000000 -s 4 -x 844.620000 -y 86.270000 -U 0.000000 -V 0.000000 -T 0.000000
n -t 0.000000 -s 5 -x 619.990000 -y 754.110000 -U 0.000000 -V 0.000000 -T 0.000000
n -t 0.000000 -s 6 -x 1062.660000 -y 496.370000 -U 0.000000 -V 0.000000 -T 0.000000
n -t 0.000000 -s 7 -x 457.350000 -y 967.370000 -U 0.000000 -V 0.000000 -T 0.000000
n -t 0.000000 -s 8 -x 798.130000 -y 801.760000 -U 0.000000 -V 0.000000 -T 0.000000
n -t 0.000000 -s 9 -x 891.340000 -y 229.400000 -U 0.000000 -V 0.000000 -T 0.000000
n -t 0.000000 -s 10 -x 44.800000 -y 1016.780000 -U 0.000000 -V 0.000000 -T 0.000000
n -t 0.000000 -s 11 -x 923.470000 -y 225.610000 -U 0.000000 -V 0.000000 -T 0.000000
n -t 0.000000 -s 12 -x 1071.390000 -y 253.200000 -U 0.000000 -V 0.000000 -T 0.000000
n -t 0.000000 -s 13 -x 802.780000 -y 783.330000 -U 0.000000 -V 0.000000 -T 0.000000
n -t 0.000000 -s 14 -x 1056.840000 -y 814.280000 -U 0.000000 -V 0.000000 -T 0.000000
n -t 0.000000 -s 15 -x 415.430000 -y 740.840000 -U 0.000000 -V 0.000000 -T 0.000000
n -t 0.000000 -s 16 -x 1032.340000 -y 1239.030000 -U 0.000000 -V 0.000000 -T 0.000000
n -t 0.000000 -s 17 -x 310.570000 -y 1227.840000 -U 0.000000 -V 0.000000 -T 0.000000
n -t 0.000000 -s 18 -x 671.110000 -y 777.420000 -U 0.000000 -V 0.000000 -T 0.000000
n -t 0.000000 -s 19 -x 773.420000 -y 321.380000 -U 0.000000 -V 0.000000 -T 0.000000
n -t 0.000000 -s 20 -x 762.710000 -y 848.390000 -U 0.000000 -V 0.000000 -T 0.000000
n -t 0.000000 -s 21 -x 1108.300000 -y 1226.390000 -U 0.000000 -V 0.000000 -T 0.000000
n -t 0.000000 -s 22 -x 554.100000 -y 161.850000 -U 0.000000 -V 0.000000 -T 0.000000
n -t 0.000000 -s 23 -x 164.260000 -y 291.470000 -U 0.000000 -V 0.000000 -T 0.000000
n -t 0.000000 -s 24 -x 398.170000 -y 307.630000 -U 0.000000 -V 0.000000 -T 0.000000
n -t 0.000000 -s 25 -x 723.660000 -y 315.290000 -U 0.000000 -V 0.000000 -T 0.000000
n -t 0.000000 -s 0 -x 1119.210000 -y 859.020000 -U 0.000000 -V 0.000000 -T 0.000000
n -t 0.000000 -s 1 -x 548.360000 -y 416.260000 -U 0.000000 -V 0.000000 -T 0.000000
+ -t 0.003091411 -s 0 -d -1 -p message -e 32 -c 2 -a 0 -i 0 -k RTR 
- -t 0.003091411 -s 0 -d -1 -p message -e 32 -c 2 -a 0 -i 0 -k RTR
h -t 0.003091411 -s 0 -d -1 -p message -e 32 -c 2 -a 0 -i 0 -k RTR
+ -t 0.003466411 -s 0 -d -1 -p message -e 90 -c 2 -a 0 -i 0 -k MAC 
- -t 0.003466411 -s 0 -d -1 -p message -e 90 -c 2 -a 0 -i 0 -k MAC
h -t 0.003466411 -s 0 -d -1 -p message -e 90 -c 2 -a 0 -i 0 -k MAC
r -t 0.004186667 -s 14 -d -1 -p message -e 32 -c 2 -a 0 -i 0 -k MAC
r -t 0.004187495 -s 13 -d -1 -p message -e 32 -c 2 -a 0 -i 0 -k MAC
r -t 0.004187498 -s 8 -d -1 -p message -e 32 -c 2 -a 0 -i 0 -k MAC
r -t 0.004187600 -s 20 -d -1 -p message -e 32 -c 2 -a 0 -i 0 -k MAC
r -t 0.004187634 -s 6 -d -1 -p message -e 32 -c 2 -a 0 -i 0 -k MAC
r -t 0.004187636 -s 21 -d -1 -p message -e 32 -c 2 -a 0 -i 0 -k MAC
r -t 0.004187710 -s 16 -d -1 -p message -e 32 -c 2 -a 0 -i 0 -k MAC
r -t 0.004211667 -s 14 -d -1 -p message -e 32 -c 2 -a 0 -i 0 -k RTR
r -t 0.004212495 -s 13 -d -1 -p message -e 32 -c 2 -a 0 -i 0 -k RTR
r -t 0.004212498 -s 8 -d -1 -p message -e 32 -c 2 -a 0 -i 0 -k RTR
r -t 0.004212600 -s 20 -d -1 -p message -e 32 -c 2 -a 0 -i 0 -k RTR
r -t 0.004212634 -s 6 -d -1 -p message -e 32 -c 2 -a 0 -i 0 -k RTR
r -t 0.004212636 -s 21 -d -1 -p message -e 32 -c 2 -a 0 -i 0 -k RTR
r -t 0.004212710 -s 16 -d -1 -p message -e 32 -c 2 -a 0 -i 0 -k RTR
+ -t 0.037458776 -s 2 -d -1 -p message -e 32 -c 2 -a 0 -i 1 -k RTR 
- -t 0.037458776 -s 2 -d -1 -p message -e 32 -c 2 -a 0 -i 1 -k RTR
h -t 0.037458776 -s 2 -d -1 -p message -e 32 -c 2 -a 0 -i 1 -k RTR
+ -t 0.037813776 -s 2 -d -1 -p message -e 90 -c 2 -a 0 -i 1 -k MAC 
- -t 0.037813776 -s 2 -d -1 -p message -e 90 -c 2 -a 0 -i 1 -k MAC
h -t 0.037813776 -s 2 -d -1 -p message -e 90 -c 2 -a 0 -i 1 -k MAC
r -t 0.038534203 -s 24 -d -1 -p message -e 32 -c 2 -a 0 -i 1 -k MAC
r -t 0.038534255 -s 23 -d -1 -p message -e 32 -c 2 -a 0 -i 1 -k MAC
r -t 0.038534667 -s 1 -d -1 -p message -e 32 -c 2 -a 0 -i 1 -k MAC
r -t 0.038534906 -s 22 -d -1 -p message -e 32 -c 2 -a 0 -i 1 -k MAC
r -t 0.038535090 -s 15 -d -1 -p message -e 32 -c 2 -a 0 -i 1 -k MAC
r -t 0.038559203 -s 24 -d -1 -p message -e 32 -c 2 -a 0 -i 1 -k RTR
r -t 0.038559255 -s 23 -d -1 -p message -e 32 -c 2 -a 0 -i 1 -k RTR
r -t 0.038559667 -s 1 -d -1 -p message -e 32 -c 2 -a 0 -i 1 -k RTR
r -t 0.038559906 -s 22 -d -1 -p message -e 32 -c 2 -a 0 -i 1 -k RTR
r -t 0.038560090 -s 15 -d -1 -p message -e 32 -c 2 -a 0 -i 1 -k RTR
+ -t 0.087462768 -s 13 -d -1 -p message -e 32 -c 2 -a 0 -i 2 -k RTR 
- -t 0.087462768 -s 13 -d -1 -p message -e 32 -c 2 -a 0 -i 2 -k RTR
h -t 0.087462768 -s 13 -d -1 -p message -e 32 -c 2 -a 0 -i 2 -k RTR
+ -t 0.087757768 -s 13 -d -1 -p message -e 90 -c 2 -a 0 -i 2 -k MAC 
- -t 0.087757768 -s 13 -d -1 -p message -e 90 -c 2 -a 0 -i 2 -k MAC
h -t 0.087757768 -s 13 -d -1 -p message -e 90 -c 2 -a 0 -i 2 -k MAC
r -t 0.088477831 -s 8 -d -1 -p message -e 32 -c 2 -a 0 -i 2 -k MAC
r -t 0.088478023 -s 20 -d -1 -p message -e 32 -c 2 -a 0 -i 2 -k MAC
r -t 0.088478207 -s 18 -d -1 -p message -e 32 -c 2 -a 0 -i 2 -k MAC
r -t 0.088478385 -s 5 -d -1 -p message -e 32 -c 2 -a 0 -i 2 -k MAC
r -t 0.088478621 -s 14 -d -1 -p message -e 32 -c 2 -a 0 -i 2 -k MAC
r -t 0.088478852 -s 0 -d -1 -p message -e 32 -c 2 -a 0 -i 2 -k MAC
r -t 0.088479058 -s 6 -d -1 -p message -e 32 -c 2 -a 0 -i 2 -k MAC
r -t 0.088479067 -s 15 -d -1 -p message -e 32 -c 2 -a 0 -i 2 -k MAC
r -t 0.088479073 -s 7 -d -1 -p message -e 32 -c 2 -a 0 -i 2 -k MAC
r -t 0.088502831 -s 8 -d -1 -p message -e 32 -c 2 -a 0 -i 2 -k RTR
r -t 0.088503023 -s 20 -d -1 -p message -e 32 -c 2 -a 0 -i 2 -k RTR
r -t 0.088503207 -s 18 -d -1 -p message -e 32 -c 2 -a 0 -i 2 -k RTR
r -t 0.088503385 -s 5 -d -1 -p message -e 32 -c 2 -a 0 -i 2 -k RTR
r -t 0.088503621 -s 14 -d -1 -p message -e 32 -c 2 -a 0 -i 2 -k RTR
r -t 0.088503852 -s 0 -d -1 -p message -e 32 -c 2 -a 0 -i 2 -k RTR
r -t 0.088504058 -s 6 -d -1 -p message -e 32 -c 2 -a 0 -i 2 -k RTR
r -t 0.088504067 -s 15 -d -1 -p message -e 32 -c 2 -a 0 -i 2 -k RTR
r -t 0.088504073 -s 7 -d -1 -p message -e 32 -c 2 -a 0 -i 2 -k RTR
+ -t 0.177365656 -s 3 -d -1 -p message -e 32 -c 2 -a 0 -i 3 -k RTR 
- -t 0.177365656 -s 3 -d -1 -p message -e 32 -c 2 -a 0 -i 3 -k RTR
h -t 0.177365656 -s 3 -d -1 -p message -e 32 -c 2 -a 0 -i 3 -k RTR
+ -t 0.177560656 -s 3 -d -1 -p message -e 90 -c 2 -a 0 -i 3 -k MAC 
- -t 0.177560656 -s 3 -d -1 -p message -e 90 -c 2 -a 0 -i 3 -k MAC
h -t 0.177560656 -s 3 -d -1 -p message -e 90 -c 2 -a 0 -i 3 -k MAC
r -t 0.178281237 -s 22 -d -1 -p message -e 32 -c 2 -a 0 -i 3 -k MAC
r -t 0.178281399 -s 4 -d -1 -p message -e 32 -c 2 -a 0 -i 3 -k MAC
r -t 0.178281721 -s 25 -d -1 -p message -e 32 -c 2 -a 0 -i 3 -k MAC
r -t 0.178281783 -s 9 -d -1 -p message -e 32 -c 2 -a 0 -i 3 -k MAC
r -t 0.178281797 -s 19 -d -1 -p message -e 32 -c 2 -a 0 -i 3 -k MAC
r -t 0.178281858 -s 11 -d -1 -p message -e 32 -c 2 -a 0 -i 3 -k MAC
r -t 0.178281870 -s 29 -d -1 -p message -e 32 -c 2 -a 0 -i 3 -k MAC
r -t 0.178281931 -s 24 -d -1 -p message -e 32 -c 2 -a 0 -i 3 -k MAC
r -t 0.178306237 -s 22 -d -1 -p message -e 32 -c 2 -a 0 -i 3 -k RTR
r -t 0.178306399 -s 4 -d -1 -p message -e 32 -c 2 -a 0 -i 3 -k RTR
r -t 0.178306721 -s 25 -d -1 -p message -e 32 -c 2 -a 0 -i 3 -k RTR
r -t 0.178306783 -s 9 -d -1 -p message -e 32 -c 2 -a 0 -i 3 -k RTR
r -t 0.178306797 -s 19 -d -1 -p message -e 32 -c 2 -a 0 -i 3 -k RTR
r -t 0.178306858 -s 11 -d -1 -p message -e 32 -c 2 -a 0 -i 3 -k RTR
r -t 0.178306870 -s 29 -d -1 -p message -e 32 -c 2 -a 0 -i 3 -k RTR
r -t 0.178306931 -s 24 -d -1 -p message -e 32 -c 2 -a 0 -i 3 -k RTR
+ -t 0.191634337 -s 19 -d -1 -p message -e 32 -c 2 -a 0 -i 4 -k RTR 
- -t 0.191634337 -s 19 -d -1 -p message -e 32 -c 2 -a 0 -i 4 -k RTR
h -t 0.191634337 -s 19 -d -1 -p message -e 32 -c 2 -a 0 -i 4 -k RTR
+ -t 0.191889337 -s 19 -d -1 -p message -e 90 -c 2 -a 0 -i 4 -k MAC 
- -t 0.191889337 -s 19 -d -1 -p message -e 90 -c 2 -a 0 -i 4 -k MAC
h -t 0.191889337 -s 19 -d -1 -p message -e 90 -c 2 -a 0 -i 4 -k MAC
r -t 0.192609504 -s 25 -d -1 -p message -e 32 -c 2 -a 0 -i 4 -k MAC
r -t 0.192609835 -s 9 -d -1 -p message -e 32 -c 2 -a 0 -i 4 -k MAC
r -t 0.192609930 -s 11 -d -1 -p message -e 32 -c 2 -a 0 -i 4 -k MAC
r -t 0.192610151 -s 1 -d -1 -p message -e 32 -c 2 -a 0 -i 4 -k MAC
r -t 0.192610156 -s 4 -d -1 -p message -e 32 -c 2 -a 0 -i 4 -k MAC
r -t 0.192610241 -s 22 -d -1 -p message -e 32 -c 2 -a 0 -i 4 -k MAC
r -t 0.192610356 -s 12 -d -1 -p message -e 32 -c 2 -a 0 -i 4 -k MAC
r -t 0.192610464 -s 6 -d -1 -p message -e 32 -c 2 -a 0 -i 4 -k MAC
r -t 0.192610478 -s 3 -d -1 -p message -e 32 -c 2 -a 0 -i 4 -k MAC
r -t 0.192610588 -s 24 -d -1 -p message -e 32 -c 2 -a 0 -i 4 -k MAC
r -t 0.192610647 -s 29 -d -1 -p message -e 32 -c 2 -a 0 -i 4 -k MAC
r -t 0.192634504 -s 25 -d -1 -p message -e 32 -c 2 -a 0 -i 4 -k RTR
r -t 0.192634835 -s 9 -d -1 -p message -e 32 -c 2 -a 0 -i 4 -k RTR
r -t 0.192634930 -s 11 -d -1 -p message -e 32 -c 2 -a 0 -i 4 -k RTR
r -t 0.192635151 -s 1 -d -1 -p message -e 32 -c 2 -a 0 -i 4 -k RTR
r -t 0.192635156 -s 4 -d -1 -p message -e 32 -c 2 -a 0 -i 4 -k RTR
r -t 0.192635241 -s 22 -d -1 -p message -e 32 -c 2 -a 0 -i 4 -k RTR
r -t 0.192635356 -s 12 -d -1 -p message -e 32 -c 2 -a 0 -i 4 -k RTR
r -t 0.192635464 -s 6 -d -1 -p message -e 32 -c 2 -a 0 -i 4 -k RTR
r -t 0.192635478 -s 3 -d -1 -p message -e 32 -c 2 -a 0 -i 4 -k RTR
r -t 0.192635588 -s 24 -d -1 -p message -e 32 -c 2 -a 0 -i 4 -k RTR
r -t 0.192635647 -s 29 -d -1 -p message -e 32 -c 2 -a 0 -i 4 -k RTR
+ -t 0.234603229 -s 15 -d -1 -p message -e 32 -c 2 -a 0 -i 5 -k RTR 
- -t 0.234603229 -s 15 -d -1 -p message -e 32 -c 2 -a 0 -i 5 -k RTR
h -t 0.234603229 -s 15 -d -1 -p message -e 32 -c 2 -a 0 -i 5 -k RTR
+ -t 0.234898229 -s 15 -d -1 -p message -e 90 -c 2 -a 0 -i 5 -k MAC 
- -t 0.234898229 -s 15 -d -1 -p message -e 90 -c 2 -a 0 -i 5 -k MAC
h -t 0.234898229 -s 15 -d -1 -p message -e 90 -c 2 -a 0 -i 5 -k MAC
r -t 0.235618913 -s 5 -d -1 -p message -e 32 -c 2 -a 0 -i 5 -k MAC
r -t 0.235618997 -s 7 -d -1 -p message -e 32 -c 2 -a 0 -i 5 -k MAC
r -t 0.235619090 -s 18 -d -1 -p message -e 32 -c 2 -a 0 -i 5 -k MAC
r -t 0.235619399 -s 1 -d -1 -p message -e 32 -c 2 -a 0 -i 5 -k MAC
r -t 0.235619441 -s 20 -d -1 -p message -e 32 -c 2 -a 0 -i 5 -k MAC
r -t 0.235619521 -s 8 -d -1 -p message -e 32 -c 2 -a 0 -i 5 -k MAC
r -t 0.235619528 -s 13 -d -1 -p message -e 32 -c 2 -a 0 -i 5 -k MAC
r -t 0.235619544 -s 2 -d -1 -p message -e 32 -c 2 -a 0 -i 5 -k MAC
r -t 0.235643913 -s 5 -d -1 -p message -e 32 -c 2 -a 0 -i 5 -k RTR
r -t 0.235643997 -s 7 -d -1 -p message -e 32 -c 2 -a 0 -i 5 -k RTR
r -t 0.235644090 -s 18 -d -1 -p message -e 32 -c 2 -a 0 -i 5 -k RTR
r -t 0.235644399 -s 1 -d -1 -p message -e 32 -c 2 -a 0 -i 5 -k RTR
r -t 0.235644441 -s 20 -d -1 -p message -e 32 -c 2 -a 0 -i 5 -k RTR
r -t 0.235644521 -s 8 -d -1 -p message -e 32 -c 2 -a 0 -i 5 -k RTR
r -t 0.235644528 -s 13 -d -1 -p message -e 32 -c 2 -a 0 -i 5 -k RTR
r -t 0.235644544 -s 2 -d -1 -p message -e 32 -c 2 -a 0 -i 5 -k RTR
+ -t 0.333839210 -s 12 -d -1 -p message -e 32 -c 2 -a 0 -i 6 -k RTR 
- -t 0.333839210 -s 12 -d -1 -p message -e 32 -c 2 -a 0 -i 6 -k RTR
h -t 0.333839210 -s 12 -d -1 -p message -e 32 -c 2 -a 0 -i 6 -k RTR
+ -t 0.333994210 -s 12 -d -1 -p message -e 90 -c 2 -a 0 -i 6 -k MAC 
- -t 0.333994210 -s 12 -d -1 -p message -e 90 -c 2 -a 0 -i 6 -k MAC
h -t 0.333994210 -s 12 -d -1 -p message -e 90 -c 2 -a 0 -i 6 -k MAC
r -t 0.334714712 -s 11 -d -1 -p message -e 32 -c 2 -a 0 -i 6 -k MAC
r -t 0.334714815 -s 9 -d -1 -p message -e 32 -c 2 -a 0 -i 6 -k MAC
r -t 0.334715021 -s 6 -d -1 -p message -e 32 -c 2 -a 0 -i 6 -k MAC
r -t 0.334715087 -s 29 -d -1 -p message -e 32 -c 2 -a 0 -i 6 -k MAC
r -t 0.334715149 -s 4 -d -1 -p message -e 32 -c 2 -a 0 -i 6 -k MAC
r -t 0.334715229 -s 19 -d -1 -p message -e 32 -c 2 -a 0 -i 6 -k MAC
r -t 0.334715387 -s 25 -d -1 -p message -e 32 -c 2 -a 0 -i 6 -k MAC
r -t 0.334739712 -s 11 -d -1 -p message -e 32 -c 2 -a 0 -i 6 -k RTR
r -t 0.334739815 -s 9 -d -1 -p message -e 32 -c 2 -a 0 -i 6 -k RTR
r -t 0.334740021 -s 6 -d -1 -p message -e 32 -c 2 -a 0 -i 6 -k RTR
r -t 0.334740087 -s 29 -d -1 -p message -e 32 -c 2 -a 0 -i 6 -k RTR
r -t 0.334740149 -s 4 -d -1 -p message -e 32 -c 2 -a 0 -i 6 -k RTR
r -t 0.334740229 -s 19 -d -1 -p message -e 32 -c 2 -a 0 -i 6 -k RTR
r -t 0.334740387 -s 25 -d -1 -p message -e 32 -c 2 -a 0 -i 6 -k RTR
+ -t 0.351472650 -s 18 -d -1 -p message -e 32 -c 2 -a 0 -i 7 -k RTR 
- -t 0.351472650 -s 18 -d -1 -p message -e 32 -c 2 -a 0 -i 7 -k RTR
h -t 0.351472650 -s 18 -d -1 -p message -e 32 -c 2 -a 0 -i 7 -k RTR
+ -t 0.351847650 -s 18 -d -1 -p message -e 90 -c 2 -a 0 -i 7 -k MAC 
- -t 0.351847650 -s 18 -d -1 -p message -e 90 -c 2 -a 0 -i 7 -k MAC
h -t 0.351847650 -s 18 -d -1 -p message -e 90 -c 2 -a 0 -i 7 -k MAC
r -t 0.352567837 -s 5 -d -1 -p message -e 32 -c 2 -a 0 -i 7 -k MAC
r -t 0.352568036 -s 20 -d -1 -p message -e 32 -c 2 -a 0 -i 7 -k MAC
r -t 0.352568081 -s 8 -d -1 -p message -e 32 -c 2 -a 0 -i 7 -k MAC
r -t 0.352568090 -s 13 -d -1 -p message -e 32 -c 2 -a 0 -i 7 -k MAC
r -t 0.352568511 -s 15 -d -1 -p message -e 32 -c 2 -a 0 -i 7 -k MAC
r -t 0.352568603 -s 7 -d -1 -p message -e 32 -c 2 -a 0 -i 7 -k MAC
r -t 0.352568922 -s 1 -d -1 -p message -e 32 -c 2 -a 0 -i 7 -k MAC
r -t 0.352568942 -s 14 -d -1 -p message -e 32 -c 2 -a 0 -i 7 -k MAC
r -t 0.352592837 -s 5 -d -1 -p message -e 32 -c 2 -a 0 -i 7 -k RTR
r -t 0.352593036 -s 20 -d -1 -p message -e 32 -c 2 -a 0 -i 7 -k RTR
r -t 0.352593081 -s 8 -d -1 -p message -e 32 -c 2 -a 0 -i 7 -k RTR
r -t 0.352593090 -s 13 -d -1 -p message -e 32 -c 2 -a 0 -i 7 -k RTR
r -t 0.352593511 -s 15 -d -1 -p message -e 32 -c 2 -a 0 -i 7 -k RTR
r -t 0.352593603 -s 7 -d -1 -p message -e 32 -c 2 -a 0 -i 7 -k RTR
r -t 0.352593922 -s 1 -d -1 -p message -e 32 -c 2 -a 0 -i 7 -k RTR
r -t 0.352593942 -s 14 -d -1 -p message -e 32 -c 2 -a 0 -i 7 -k RTR
+ -t 0.436386259 -s 29 -d -1 -p message -e 32 -c 2 -a 0 -i 8 -k RTR 
- -t 0.436386259 -s 29 -d -1 -p message -e 32 -c 2 -a 0 -i 8 -k RTR
h -t 0.436386259 -s 29 -d -1 -p message -e 32 -c 2 -a 0 -i 8 -k RTR
+ -t 0.436701259 -s 29 -d -1 -p message -e 90 -c 2 -a 0 -i 8 -k MAC 
- -t 0.436701259 -s 29 -d -1 -p message -e 90 -c 2 -a 0 -i 8 -k MAC
h -t 0.436701259 -s 29 -d -1 -p message -e 90 -c 2 -a 0 -i 8 -k MAC
r -t 0.437421852 -s 4 -d -1 -p message -e 32 -c 2 -a 0 -i 8 -k MAC
r -t 0.437422053 -s 11 -d -1 -p message -e 32 -c 2 -a 0 -i 8 -k MAC
r -t 0.437422105 -s 9 -d -1 -p message -e 32 -c 2 -a 0 -i 8 -k MAC
r -t 0.437422136 -s 12 -d -1 -p message -e 32 -c 2 -a 0 -i 8 -k MAC
r -t 0.437422473 -s 3 -d -1 -p message -e 32 -c 2 -a 0 -i 8 -k MAC
r -t 0.437422570 -s 19 -d -1 -p message -e 32 -c 2 -a 0 -i 8 -k MAC
r -t 0.437446852 -s 4 -d -1 -p message -e 32 -c 2 -a 0 -i 8 -k RTR
r -t 0.437447053 -s 11 -d -1 -p message -e 32 -c 2 -a 0 -i 8 -k RTR
r -t 0.437447105 -s 9 -d -1 -p message -e 32 -c 2 -a 0 -i 8 -k RTR
r -t 0.437447136 -s 12 -d -1 -p message -e 32 -c 2 -a 0 -i 8 -k RTR
r -t 0.437447473 -s 3 -d -1 -p message -e 32 -c 2 -a 0 -i 8 -k RTR
r -t 0.437447570 -s 19 -d -1 -p message -e 32 -c 2 -a 0 -i 8 -k RTR
+ -t 0.470117073 -s 8 -d -1 -p message -e 32 -c 2 -a 0 -i 9 -k RTR 
- -t 0.470117073 -s 8 -d -1 -p message -e 32 -c 2 -a 0 -i 9 -k RTR
h -t 0.470117073 -s 8 -d -1 -p message -e 32 -c 2 -a 0 -i 9 -k RTR
+ -t 0.470652073 -s 8 -d -1 -p message -e 90 -c 2 -a 0 -i 9 -k MAC 
- -t 0.470652073 -s 8 -d -1 -p message -e 90 -c 2 -a 0 -i 9 -k MAC
h -t 0.470652073 -s 8 -d -1 -p message -e 90 -c 2 -a 0 -i 9 -k MAC
r -t 0.471372136 -s 13 -d -1 -p message -e 32 -c 2 -a 0 -i 9 -k MAC
r -t 0.471372268 -s 20 -d -1 -p message -e 32 -c 2 -a 0 -i 9 -k MAC
r -t 0.471372504 -s 18 -d -1 -p message -e 32 -c 2 -a 0 -i 9 -k MAC
r -t 0.471372688 -s 5 -d -1 -p message -e 32 -c 2 -a 0 -i 9 -k MAC
r -t 0.471372936 -s 14 -d -1 -p message -e 32 -c 2 -a 0 -i 9 -k MAC
r -t 0.471373160 -s 0 -d -1 -p message -e 32 -c 2 -a 0 -i 9 -k MAC
r -t 0.471373336 -s 7 -d -1 -p message -e 32 -c 2 -a 0 -i 9 -k MAC
r -t 0.471373365 -s 15 -d -1 -p message -e 32 -c 2 -a 0 -i 9 -k MAC
r -t 0.471397136 -s 13 -d -1 -p message -e 32 -c 2 -a 0 -i 9 -k RTR
r -t 0.471397268 -s 20 -d -1 -p message -e 32 -c 2 -a 0 -i 9 -k RTR
r -t 0.471397504 -s 18 -d -1 -p message -e 32 -c 2 -a 0 -i 9 -k RTR
r -t 0.471397688 -s 5 -d -1 -p message -e 32 -c 2 -a 0 -i 9 -k RTR
r -t 0.471397936 -s 14 -d -1 -p message -e 32 -c 2 -a 0 -i 9 -k RTR
r -t 0.471398160 -s 0 -d -1 -p message -e 32 -c 2 -a 0 -i 9 -k RTR
r -t 0.471398336 -s 7 -d -1 -p message -e 32 -c 2 -a 0 -i 9 -k RTR
r -t 0.471398365 -s 15 -d -1 -p message -e 32 -c 2 -a 0 -i 9 -k RTR
+ -t 0.521504883 -s 22 -d -1 -p message -e 32 -c 2 -a 0 -i 10 -k RTR 
- -t 0.521504883 -s 22 -d -1 -p message -e 32 -c 2 -a 0 -i 10 -k RTR
h -t 0.521504883 -s 22 -d -1 -p message -e 32 -c 2 -a 0 -i 10 -k RTR
+ -t 0.521659883 -s 22 -d -1 -p message -e 90 -c 2 -a 0 -i 10 -k MAC 
- -t 0.521659883 -s 22 -d -1 -p message -e 90 -c 2 -a 0 -i 10 -k MAC
h -t 0.521659883 -s 22 -d -1 -p message -e 90 -c 2 -a 0 -i 10 -k MAC
r -t 0.522380464 -s 3 -d -1 -p message -e 32 -c 2 -a 0 -i 10 -k MAC
r -t 0.522380595 -s 24 -d -1 -p message -e 32 -c 2 -a 0 -i 10 -k MAC
r -t 0.522380645 -s 25 -d -1 -p message -e 32 -c 2 -a 0 -i 10 -k MAC
r -t 0.522380731 -s 1 -d -1 -p message -e 32 -c 2 -a 0 -i 10 -k MAC
r -t 0.522380787 -s 19 -d -1 -p message -e 32 -c 2 -a 0 -i 10 -k MAC
r -t 0.522380884 -s 4 -d -1 -p message -e 32 -c 2 -a 0 -i 10 -k MAC
r -t 0.522381013 -s 2 -d -1 -p message -e 32 -c 2 -a 0 -i 10 -k MAC
r -t 0.522381030 -s 9 -d -1 -p message -e 32 -c 2 -a 0 -i 10 -k MAC
r -t 0.522381133 -s 11 -d -1 -p message -e 32 -c 2 -a 0 -i 10 -k MAC
r -t 0.522405464 -s 3 -d -1 -p message -e 32 -c 2 -a 0 -i 10 -k RTR
r -t 0.522405595 -s 24 -d -1 -p message -e 32 -c 2 -a 0 -i 10 -k RTR
r -t 0.522405645 -s 25 -d -1 -p message -e 32 -c 2 -a 0 -i 10 -k RTR
r -t 0.522405731 -s 1 -d -1 -p message -e 32 -c 2 -a 0 -i 10 -k RTR
r -t 0.522405787 -s 19 -d -1 -p message -e 32 -c 2 -a 0 -i 10 -k RTR
r -t 0.522405884 -s 4 -d -1 -p message -e 32 -c 2 -a 0 -i 10 -k RTR
r -t 0.522406013 -s 2 -d -1 -p message -e 32 -c 2 -a 0 -i 10 -k RTR
r -t 0.522406030 -s 9 -d -1 -p message -e 32 -c 2 -a 0 -i 10 -k RTR
r -t 0.522406133 -s 11 -d -1 -p message -e 32 -c 2 -a 0 -i 10 -k RTR
+ -t 0.556838879 -s 28 -d -1 -p cbr -e 512 -c 2 -a 0 -i 11 -k AGT 
- -t 0.556838879 -s 28 -d -1 -p cbr -e 512 -c 2 -a 0 -i 11 -k AGT
h -t 0.556838879 -s 28 -d -1 -p cbr -e 512 -c 2 -a 0 -i 11 -k AGT
+ -t 0.627186592 -s 10 -d -1 -p message -e 32 -c 2 -a 0 -i 12 -k RTR 
- -t 0.627186592 -s 10 -d -1 -p message -e 32 -c 2 -a 0 -i 12 -k RTR
h -t 0.627186592 -s 10 -d -1 -p message -e 32 -c 2 -a 0 -i 12 -k RTR
+ -t 0.627321592 -s 10 -d -1 -p message -e 90 -c 2 -a 0 -i 12 -k MAC 
- -t 0.627321592 -s 10 -d -1 -p message -e 90 -c 2 -a 0 -i 12 -k MAC
h -t 0.627321592 -s 10 -d -1 -p message -e 90 -c 2 -a 0 -i 12 -k MAC
r -t 0.628041752 -s 28 -d -1 -p message -e 32 -c 2 -a 0 -i 12 -k MAC
r -t 0.628042723 -s 17 -d -1 -p message -e 32 -c 2 -a 0 -i 12 -k MAC
r -t 0.628066752 -s 28 -d -1 -p message -e 32 -c 2 -a 0 -i 12 -k RTR
r -t 0.628067723 -s 17 -d -1 -p message -e 32 -c 2 -a 0 -i 12 -k RTR
+ -t 0.634670006 -s 6 -d -1 -p message -e 32 -c 2 -a 0 -i 13 -k RTR 
- -t 0.634670006 -s 6 -d -1 -p message -e 32 -c 2 -a 0 -i 13 -k RTR
h -t 0.634670006 -s 6 -d -1 -p message -e 32 -c 2 -a 0 -i 13 -k RTR
+ -t 0.634865006 -s 6 -d -1 -p message -e 90 -c 2 -a 0 -i 13 -k MAC 
- -t 0.634865006 -s 6 -d -1 -p message -e 90 -c 2 -a 0 -i 13 -k MAC
h -t 0.634865006 -s 6 -d -1 -p message -e 90 -c 2 -a 0 -i 13 -k MAC
r -t 0.635585817 -s 12 -d -1 -p message -e 32 -c 2 -a 0 -i 13 -k MAC
r -t 0.635586021 -s 11 -d -1 -p message -e 32 -c 2 -a 0 -i 13 -k MAC
r -t 0.635586064 -s 9 -d -1 -p message -e 32 -c 2 -a 0 -i 13 -k MAC
r -t 0.635586066 -s 14 -d -1 -p message -e 32 -c 2 -a 0 -i 13 -k MAC
r -t 0.635586133 -s 19 -d -1 -p message -e 32 -c 2 -a 0 -i 13 -k MAC
r -t 0.635586230 -s 0 -d -1 -p message -e 32 -c 2 -a 0 -i 13 -k MAC
r -t 0.635586287 -s 25 -d -1 -p message -e 32 -c 2 -a 0 -i 13 -k MAC
r -t 0.635586297 -s 13 -d -1 -p message -e 32 -c 2 -a 0 -i 13 -k MAC
r -t 0.635610817 -s 12 -d -1 -p message -e 32 -c 2 -a 0 -i 13 -k RTR
r -t 0.635611021 -s 11 -d -1 -p message -e 32 -c 2 -a 0 -i 13 -k RTR
r -t 0.635611064 -s 9 -d -1 -p message -e 32 -c 2 -a 0 -i 13 -k RTR
r -t 0.635611066 -s 14 -d -1 -p message -e 32 -c 2 -a 0 -i 13 -k RTR
r -t 0.635611133 -s 19 -d -1 -p message -e 32 -c 2 -a 0 -i 13 -k RTR
r -t 0.635611230 -s 0 -d -1 -p message -e 32 -c 2 -a 0 -i 13 -k RTR
r -t 0.635611287 -s 25 -d -1 -p message -e 32 -c 2 -a 0 -i 13 -k RTR
r -t 0.635611297 -s 13 -d -1 -p message -e 32 -c 2 -a 0 -i 13 -k RTR
+ -t 0.705637875 -s 21 -d -1 -p message -e 32 -c 2 -a 0 -i 14 -k RTR 
- -t 0.705637875 -s 21 -d -1 -p message -e 32 -c 2 -a 0 -i 14 -k RTR
h -t 0.705637875 -s 21 -d -1 -p message -e 32 -c 2 -a 0 -i 14 -k RTR
+ -t 0.706012875 -s 21 -d -1 -p message -e 90 -c 2 -a 0 -i 14 -k MAC 
- -t 0.706012875 -s 21 -d -1 -p message -e 90 -c 2 -a 0 -i 14 -k MAC
h -t 0.706012875 -s 21 -d -1 -p message -e 90 -c 2 -a 0 -i 14 -k MAC
r -t 0.706733131 -s 16 -d -1 -p message -e 32 -c 2 -a 0 -i 14 -k MAC
r -t 0.706734100 -s 0 -d -1 -p message -e 32 -c 2 -a 0 -i 14 -k MAC
r -t 0.706758131 -s 16 -d -1 -p message -e 32 -c 2 -a 0 -i 14 -k RTR
r -t 0.706759100 -s 0 -d -1 -p message -e 32 -c 2 -a 0 -i 14 -k RTR
+ -t 0.821435127 -s 23 -d -1 -p message -e 32 -c 2 -a 0 -i 15 -k RTR 
- -t 0.821435127 -s 23 -d -1 -p message -e 32 -c 2 -a 0 -i 15 -k RTR
h -t 0.821435127 -s 23 -d -1 -p message -e 32 -c 2 -a 0 -i 15 -k RTR
+ -t 0.821550127 -s 23 -d -1 -p message -e 90 -c 2 -a 0 -i 15 -k MAC 
- -t 0.821550127 -s 23 -d -1 -p message -e 90 -c 2 -a 0 -i 15 -k MAC
h -t 0.821550127 -s 23 -d -1 -p message -e 90 -c 2 -a 0 -i 15 -k MAC
r -t 0.822270606 -s 2 -d -1 -p message -e 32 -c 2 -a 0 -i 15 -k MAC
r -t 0.822270909 -s 24 -d -1 -p message -e 32 -c 2 -a 0 -i 15 -k MAC
r -t 0.822271243 -s 27 -d -1 -p message -e 32 -c 2 -a 0 -i 15 -k MAC
r -t 0.822271243 -s 26 -d -1 -p message -e 32 -c 2 -a 0 -i 15 -k MAC
r -t 0.822295606 -s 2 -d -1 -p message -e 32 -c 2 -a 0 -i 15 -k RTR
r -t 0.822295909 -s 24 -d -1 -p message -e 32 -c 2 -a 0 -i 15 -k RTR
r -t 0.822296243 -s 27 -d -1 -p message -e 32 -c 2 -a 0 -i 15 -k RTR
r -t 0.822296243 -s 26 -d -1 -p message -e 32 -c 2 -a 0 -i 15 -k RTR
+ -t 0.848147771 -s 17 -d -1 -p message -e 32 -c 2 -a 0 -i 16 -k RTR 
- -t 0.848147771 -s 17 -d -1 -p message -e 32 -c 2 -a 0 -i 16 -k RTR
h -t 0.848147771 -s 17 -d -1 -p message -e 32 -c 2 -a 0 -i 16 -k RTR
+ -t 0.848382771 -s 17 -d -1 -p message -e 90 -c 2 -a 0 -i 16 -k MAC 
- -t 0.848382771 -s 17 -d -1 -p message -e 90 -c 2 -a 0 -i 16 -k MAC
h -t 0.848382771 -s 17 -d -1 -p message -e 90 -c 2 -a 0 -i 16 -k MAC
r -t 0.849103768 -s 7 -d -1 -p message -e 32 -c 2 -a 0 -i 16 -k MAC
r -t 0.849103903 -s 10 -d -1 -p message -e 32 -c 2 -a 0 -i 16 -k MAC
r -t 0.849104055 -s 28 -d -1 -p message -e 32 -c 2 -a 0 -i 16 -k MAC
r -t 0.849128768 -s 7 -d -1 -p message -e 32 -c 2 -a 0 -i 16 -k RTR
r -t 0.849128903 -s 10 -d -1 -p message -e 32 -c 2 -a 0 -i 16 -k RTR
r -t 0.849129055 -s 28 -d -1 -p message -e 32 -c 2 -a 0 -i 16 -k RTR
+ -t 0.882674688 -s 4 -d -1 -p message -e 32 -c 2 -a 0 -i 17 -k RTR 
- -t 0.882674688 -s 4 -d -1 -p message -e 32 -c 2 -a 0 -i 17 -k RTR
h -t 0.882674688 -s 4 -d -1 -p message -e 32 -c 2 -a 0 -i 17 -k RTR
+ -t 0.882909688 -s 4 -d -1 -p message -e 90 -c 2 -a 0 -i 17 -k MAC 
- -t 0.882909688 -s 4 -d -1 -p message -e 90 -c 2 -a 0 -i 17 -k MAC
h -t 0.882909688 -s 4 -d -1 -p message -e 90 -c 2 -a 0 -i 17 -k MAC
r -t 0.883630190 -s 9 -d -1 -p message -e 32 -c 2 -a 0 -i 17 -k MAC
r -t 0.883630221 -s 11 -d -1 -p message -e 32 -c 2 -a 0 -i 17 -k MAC
r -t 0.883630280 -s 29 -d -1 -p message -e 32 -c 2 -a 0 -i 17 -k MAC
r -t 0.883630431 -s 3 -d -1 -p message -e 32 -c 2 -a 0 -i 17 -k MAC
r -t 0.883630506 -s 19 -d -1 -p message -e 32 -c 2 -a 0 -i 17 -k MAC
r -t 0.883630551 -s 25 -d -1 -p message -e 32 -c 2 -a 0 -i 17 -k MAC
r -t 0.883630626 -s 12 -d -1 -p message -e 32 -c 2 -a 0 -i 17 -k MAC
r -t 0.883630688 -s 22 -d -1 -p message -e 32 -c 2 -a 0 -i 17 -k MAC
r -t 0.883655190 -s 9 -d -1 -p message -e 32 -c 2 -a 0 -i 17 -k RTR
r -t 0.883655221 -s 11 -d -1 -p message -e 32 -c 2 -a 0 -i 17 -k RTR
r -t 0.883655280 -s 29 -d -1 -p message -e 32 -c 2 -a 0 -i 17 -k RTR
r -t 0.883655431 -s 3 -d -1 -p message -e 32 -c 2 -a 0 -i 17 -k RTR
r -t 0.883655506 -s 19 -d -1 -p message -e 32 -c 2 -a 0 -i 17 -k RTR
r -t 0.883655551 -s 25 -d -1 -p message -e 32 -c 2 -a 0 -i 17 -k RTR
r -t 0.883655626 -s 12 -d -1 -p message -e 32 -c 2 -a 0 -i 17 -k RTR
r -t 0.883655688 -s 22 -d -1 -p message -e 32 -c 2 -a 0 -i 17 -k RTR
+ -t 0.935449221 -s 25 -d -1 -p message -e 32 -c 2 -a 0 -i 18 -k RTR 
- -t 0.935449221 -s 25 -d -1 -p message -e 32 -c 2 -a 0 -i 18 -k RTR
h -t 0.935449221 -s 25 -d -1 -p message -e 32 -c 2 -a 0 -i 18 -k RTR
+ -t 0.935884221 -s 25 -d -1 -p message -e 90 -c 2 -a 0 -i 18 -k MAC 
- -t 0.935884221 -s 25 -d -1 -p message -e 90 -c 2 -a 0 -i 18 -k MAC
h -t 0.935884221 -s 25 -d -1 -p message -e 90 -c 2 -a 0 -i 18 -k MAC
r -t 0.936604388 -s 19 -d -1 -p message -e 32 -c 2 -a 0 -i 18 -k MAC
r -t 0.936604849 -s 9 -d -1 -p message -e 32 -c 2 -a 0 -i 18 -k MAC
r -t 0.936604895 -s 1 -d -1 -p message -e 32 -c 2 -a 0 -i 18 -k MAC
r -t 0.936604951 -s 11 -d -1 -p message -e 32 -c 2 -a 0 -i 18 -k MAC
r -t 0.936604983 -s 22 -d -1 -p message -e 32 -c 2 -a 0 -i 18 -k MAC
r -t 0.936605084 -s 4 -d -1 -p message -e 32 -c 2 -a 0 -i 18 -k MAC
r -t 0.936605286 -s 3 -d -1 -p message -e 32 -c 2 -a 0 -i 18 -k MAC
r -t 0.936605306 -s 24 -d -1 -p message -e 32 -c 2 -a 0 -i 18 -k MAC
r -t 0.936605398 -s 12 -d -1 -p message -e 32 -c 2 -a 0 -i 18 -k MAC
r -t 0.936605502 -s 6 -d -1 -p message -e 32 -c 2 -a 0 -i 18 -k MAC
r -t 0.936629388 -s 19 -d -1 -p message -e 32 -c 2 -a 0 -i 18 -k RTR
r -t 0.936629849 -s 9 -d -1 -p message -e 32 -c 2 -a 0 -i 18 -k RTR
r -t 0.936629895 -s 1 -d -1 -p message -e 32 -c 2 -a 0 -i 18 -k RTR
r -t 0.936629951 -s 11 -d -1 -p message -e 32 -c 2 -a 0 -i 18 -k RTR
r -t 0.936629983 -s 22 -d -1 -p message -e 32 -c 2 -a 0 -i 18 -k RTR
r -t 0.936630084 -s 4 -d -1 -p message -e 32 -c 2 -a 0 -i 18 -k RTR
r -t 0.936630286 -s 3 -d -1 -p message -e 32 -c 2 -a 0 -i 18 -k RTR
r -t 0.936630306 -s 24 -d -1 -p message -e 32 -c 2 -a 0 -i 18 -k RTR
r -t 0.936630398 -s 12 -d -1 -p message -e 32 -c 2 -a 0 -i 18 -k RTR
r -t 0.936630502 -s 6 -d -1 -p message -e 32 -c 2 -a 0 -i 18 -k RTR
+ -t 1.039009780 -s 24 -d -1 -p message -e 32 -c 2 -a 0 -i 19 -k RTR 
- -t 1.039009780 -s 24 -d -1 -p message -e 32 -c 2 -a 0 -i 19 -k RTR
h -t 1.039009780 -s 24 -d -1 -p message -e 32 -c 2 -a 0 -i 19 -k RTR
+ -t 1.039404780 -s 24 -d -1 -p message -e 90 -c 2 -a 0 -i 19 -k MAC 
- -t 1.039404780 -s 24 -d -1 -p message -e 90 -c 2 -a 0 -i 19 -k MAC
h -t 1.039404780 -s 24 -d -1 -p message -e 90 -c 2 -a 0 -i 19 -k MAC
r -t 1.040125207 -s 2 -d -1 -p message -e 32 -c 2 -a 0 -i 19 -k MAC
r -t 1.040125398 -s 1 -d -1 -p message -e 32 -c 2 -a 0 -i 19 -k MAC
r -t 1.040125491 -s 22 -d -1 -p message -e 32 -c 2 -a 0 -i 19 -k MAC
r -t 1.040125561 -s 23 -d -1 -p message -e 32 -c 2 -a 0 -i 19 -k MAC
r -t 1.040125865 -s 25 -d -1 -p message -e 32 -c 2 -a 0 -i 19 -k MAC