M 0.0 nn 30 x 1700 y 1700 rp DSDV
M 0.0 sc dsdv-update.tcl cp trafic seed 1.0
M 0.0 prop Propagation/TwoRayGround ant Antenna/OmniAntenna
M 0.00000 0 (694.84, 743.50, 0.00), (694.84, 743.50), 0.00
M 0.00000 1 (866.13, 86.80, 0.00), (866.13, 86.80), 0.00
M 0.00000 2 (735.20, 1365.56, 0.00), (735.20, 1365.56), 0.00
M 0.00000 3 (759.62, 1162.91, 0.00), (759.62, 1162.91), 0.00
M 0.00000 4 (812.51, 841.01, 0.00), (812.51, 841.01), 0.00
M 0.00000 5 (406.69, 1311.53, 0.00), (406.69, 1311.53), 0.00
M 0.00000 6 (1300.63, 667.89, 0.00), (1300.63, 667.89), 0.00
M 0.00000 7 (493.49, 531.15, 0.00), (493.49, 531.15), 0.00
M 0.00000 8 (646.18, 8.10, 0.00), (646.18, 8.10), 0.00
M 0.00000 9 (774.73, 349.80, 0.00), (774.73, 349.80), 0.00
M 0.00000 10 (967.34, 223.14, 0.00), (967.34, 223.14), 0.00
M 0.00000 11 (886.01, 1139.19, 0.00), (886.01, 1139.19), 0.00
M 0.00000 12 (1112.50, 473.43, 0.00), (1112.50, 473.43), 0.00
M 0.00000 13 (1070.06, 1378.99, 0.00), (1070.06, 1378.99), 0.00
M 0.00000 14 (864.96, 860.75, 0.00), (864.96, 860.75), 0.00
M 0.00000 15 (642.46, 1275.61, 0.00), (642.46, 1275.61), 0.00
M 0.00000 16 (33.24, 1340.60, 0.00), (33.24, 1340.60), 0.00
M 0.00000 17 (414.60, 1178.37, 0.00), (414.60, 1178.37), 0.00
M 0.00000 18 (188.25, 898.22, 0.00), (188.25, 898.22), 0.00
M 0.00000 19 (72.14, 518.39, 0.00), (72.14, 518.39), 0.00
M 0.00000 20 (477.86, 227.94, 0.00), (477.86, 227.94), 0.00
M 0.00000 21 (987.58, 947.51, 0.00), (987.58, 947.51), 0.00
M 0.00000 22 (969.57, 1395.36, 0.00), (969.57, 1395.36), 0.00
M 0.00000 23 (334.58, 165.76, 0.00), (334.58, 165.76), 0.00
M 0.00000 24 (1162.03, 858.00, 0.00), (1162.03, 858.00), 0.00
M 0.00000 25 (912.33, 226.07, 0.00), (912.33, 226.07), 0.00
M 0.00000 26 (778.83, 437.56, 0.00), (778.83, 437.56), 0.00
M 0.00000 27 (1168.44, 1333.99, 0.00), (1168.44, 1333.99), 0.00
M 0.00000 0 (694.84, 743.50, 0.00), (694.84, 743.50), 18.12
M 0.00000 1 (866.13, 86.80, 0.00), (866.13, 86.80), 47.22
s 0.003091411 _0_ RTR  --- 0 message 32 [0 0 0 0] ------- [0:255 -1:255 32 0] 
s 0.003466411 _0_ MAC  --- 0 message 90 [0 ffffffff 0 800] ------- [0:255 -1:255 32 0] 
r 0.004186920 _4_ MAC  --- 0 message 32 [0 ffffffff 0 800] ------- [0:255 -1:255 32 0] 
r 0.004187099 _14_ MAC  --- 0 message 32 [0 ffffffff 0 800] ------- [0:255 -1:255 32 0] 
r 0.004187386 _7_ MAC  --- 0 message 32 [0 ffffffff 0 800] ------- [0:255 -1:255 32 0] 
r 0.004187468 _26_ MAC  --- 0 message 32 [0 ffffffff 0 800] ------- [0:255 -1:255 32 0] 
r 0.004187600 _21_ MAC  --- 0 message 32 [0 ffffffff 0 800] ------- [0:255 -1:255 32 0] 
r 0.004211920 _4_ RTR  --- 0 message 32 [0 ffffffff 0 800] ------- [0:255 -1:255 32 0] 
r 0.004212099 _14_ RTR  --- 0 message 32 [0 ffffffff 0 800] ------- [0:255 -1:255 32 0] 
r 0.004212386 _7_ RTR  --- 0 message 32 [0 ffffffff 0 800] ------- [0:255 -1:255 32 0] 
r 0.004212468 _26_ RTR  --- 0 message 32 [0 ffffffff 0 800] ------- [0:255 -1:255 32 0] 
r 0.004212600 _21_ RTR  --- 0 message 32 [0 ffffffff 0 800] ------- [0:255 -1:255 32 0] 
s 0.037458776 _2_ RTR  --- 1 message 32 [0 0 0 0] ------- [2:255 -1:255 32 0] 
s 0.037813776 _2_ MAC  --- 1 message 90 [0 ffffffff 2 800] ------- [2:255 -1:255 32 0] 
r 0.038534207 _15_ MAC  --- 1 message 32 [0 ffffffff 2 800] ------- [2:255 -1:255 32 0] 
r 0.038534456 _3_ MAC  --- 1 message 32 [0 ffffffff 2 800] ------- [2:255 -1:255 32 0] 
r 0.038534564 _22_ MAC  --- 1 message 32 [0 ffffffff 2 800] ------- [2:255 -1:255 32 0] 
r 0.038534683 _11_ MAC  --- 1 message 32 [0 ffffffff 2 800] ------- [2:255 -1:255 32 0] 
r 0.038534886 _5_ MAC  --- 1 message 32 [0 ffffffff 2 800] ------- [2:255 -1:255 32 0] 
r 0.038534893 _13_ MAC  --- 1 message 32 [0 ffffffff 2 800] ------- [2:255 -1:255 32 0] 
r 0.038535013 _17_ MAC  --- 1 message 32 [0 ffffffff 2 800] ------- [2:255 -1:255 32 0] 
r 0.038559207 _15_ RTR  --- 1 message 32 [0 ffffffff 2 800] ------- [2:255 -1:255 32 0] 
r 0.038559456 _3_ RTR  --- 1 message 32 [0 ffffffff 2 800] ------- [2:255 -1:255 32 0] 
r 0.038559564 _22_ RTR  --- 1 message 32 [0 ffffffff 2 800] ------- [2:255 -1:255 32 0] 
r 0.038559683 _11_ RTR  --- 1 message 32 [0 ffffffff 2 800] ------- [2:255 -1:255 32 0] 
r 0.038559886 _5_ RTR  --- 1 message 32 [0 ffffffff 2 800] ------- [2:255 -1:255 32 0] 
r 0.038559893 _13_ RTR  --- 1 message 32 [0 ffffffff 2 800] ------- [2:255 -1:255 32 0] 
r 0.038560013 _17_ RTR  --- 1 message 32 [0 ffffffff 2 800] ------- [2:255 -1:255 32 0] 
s 0.087462768 _13_ RTR  --- 2 message 32 [0 0 0 0] ------- [13:255 -1:255 32 0] 
s 0.087757768 _13_ MAC  --- 2 message 90 [0 ffffffff d 800] ------- [13:255 -1:255 32 0] 
r 0.088478107 _22_ MAC  --- 2 message 32 [0 ffffffff d 800] ------- [13:255 -1:255 32 0] 
r 0.088478128 _27_ MAC  --- 2 message 32 [0 ffffffff d 800] ------- [13:255 -1:255 32 0] 
r 0.088478776 _11_ MAC  --- 2 message 32 [0 ffffffff d 800] ------- [13:255 -1:255 32 0] 
r 0.088478885 _2_ MAC  --- 2 message 32 [0 ffffffff d 800] ------- [13:255 -1:255 32 0] 
r 0.088479029 _3_ MAC  --- 2 message 32 [0 ffffffff d 800] ------- [13:255 -1:255 32 0] 
r 0.088503107 _22_ RTR  --- 2 message 32 [0 ffffffff d 800] ------- [13:255 -1:255 32 0] 
r 0.088503128 _27_ RTR  --- 2 message 32 [0 ffffffff d 800] ------- [13:255 -1:255 32 0] 
r 0.088503776 _11_ RTR  --- 2 message 32 [0 ffffffff d 800] ------- [13:255 -1:255 32 0] 
r 0.088503885 _2_ RTR  --- 2 message 32 [0 ffffffff d 800] ------- [13:255 -1:255 32 0] 
r 0.088504029 _3_ RTR  --- 2 message 32 [0 ffffffff d 800] ------- [13:255 -1:255 32 0] 
s 0.177365656 _3_ RTR  --- 3 message 32 [0 0 0 0] ------- [3:255 -1:255 32 0] 
s 0.177560656 _3_ MAC  --- 3 message 90 [0 ffffffff 3 800] ------- [3:255 -1:255 32 0] 
r 0.178281084 _11_ MAC  --- 3 message 32 [0 ffffffff 3 800] ------- [3:255 -1:255 32 0] 
r 0.178281198 _15_ MAC  --- 3 message 32 [0 ffffffff 3 800] ------- [3:255 -1:255 32 0] 
r 0.178281336 _2_ MAC  --- 3 message 32 [0 ffffffff 3 800] ------- [3:255 -1:255 32 0] 
r 0.178281700 _22_ MAC  --- 3 message 32 [0 ffffffff 3 800] ------- [3:255 -1:255 32 0] 
r 0.178281701 _21_ MAC  --- 3 message 32 [0 ffffffff 3 800] ------- [3:255 -1:255 32 0] 
r 0.178281722 _14_ MAC  --- 3 message 32 [0 ffffffff 3 800] ------- [3:255 -1:255 32 0] 
r 0.178281743 _4_ MAC  --- 3 message 32 [0 ffffffff 3 800] ------- [3:255 -1:255 32 0] 
r 0.178281807 _17_ MAC  --- 3 message 32 [0 ffffffff 3 800] ------- [3:255 -1:255 32 0] 
r 0.178281917 _13_ MAC  --- 3 message 32 [0 ffffffff 3 800] ------- [3:255 -1:255 32 0] 
r 0.178281932 _5_ MAC  --- 3 message 32 [0 ffffffff 3 800] ------- [3:255 -1:255 32 0] 
r 0.178306084 _11_ RTR  --- 3 message 32 [0 ffffffff 3 800] ------- [3:255 -1:255 32 0] 
r 0.178306198 _15_ RTR  --- 3 message 32 [0 ffffffff 3 800] ------- [3:255 -1:255 32 0] 
r 0.178306336 _2_ RTR  --- 3 message 32 [0 ffffffff 3 800] ------- [3:255 -1:255 32 0] 
r 0.178306700 _22_ RTR  --- 3 message 32 [0 ffffffff 3 800] ------- [3:255 -1:255 32 0] 
r 0.178306701 _21_ RTR  --- 3 message 32 [0 ffffffff 3 800] ------- [3:255 -1:255 32 0] 
r 0.178306722 _14_ RTR  --- 3 message 32 [0 ffffffff 3 800] ------- [3:255 -1:255 32 0] 
r 0.178306743 _4_ RTR  --- 3 message 32 [0 ffffffff 3 800] ------- [3:255 -1:255 32 0] 
r 0.178306807 _17_ RTR  --- 3 message 32 [0 ffffffff 3 800] ------- [3:255 -1:255 32 0] 
r 0.178306917 _13_ RTR  --- 3 message 32 [0 ffffffff 3 800] ------- [3:255 -1:255 32 0] 
r 0.178306932 _5_ RTR  --- 3 message 32 [0 ffffffff 3 800] ------- [3:255 -1:255 32 0] 
s 0.191634337 _19_ RTR  --- 4 message 32 [0 0 0 0] ------- [19:255 -1:255 32 0] 
s 0.191889337 _19_ MAC  --- 4 message 90 [0 ffffffff 13 800] ------- [19:255 -1:255 32 0] 
r 0.192610661 _18_ MAC  --- 4 message 32 [0 ffffffff 13 800] ------- [19:255 -1:255 32 0] 
r 0.192635661 _18_ RTR  --- 4 message 32 [0 ffffffff 13 800] ------- [19:255 -1:255 32 0] 
s 0.234603229 _15_ RTR  --- 5 message 32 [0 0 0 0] ------- [15:255 -1:255 32 0] 
s 0.234898229 _15_ MAC  --- 5 message 90 [0 ffffffff f 800] ------- [15:255 -1:255 32 0] 
r 0.235618660 _2_ MAC  --- 5 message 32 [0 ffffffff f 800] ------- [15:255 -1:255 32 0] 
r 0.235618771 _3_ MAC  --- 5 message 32 [0 ffffffff f 800] ------- [15:255 -1:255 32 0] 
r 0.235619024 _5_ MAC  --- 5 message 32 [0 ffffffff f 800] ------- [15:255 -1:255 32 0] 
r 0.235619055 _17_ MAC  --- 5 message 32 [0 ffffffff f 800] ------- [15:255 -1:255 32 0] 
r 0.235619160 _11_ MAC  --- 5 message 32 [0 ffffffff f 800] ------- [15:255 -1:255 32 0] 
r 0.235619391 _22_ MAC  --- 5 message 32 [0 ffffffff f 800] ------- [15:255 -1:255 32 0] 
r 0.235643660 _2_ RTR  --- 5 message 32 [0 ffffffff f 800] ------- [15:255 -1:255 32 0] 
r 0.235643771 _3_ RTR  --- 5 message 32 [0 ffffffff f 800] ------- [15:255 -1:255 32 0] 
r 0.235644024 _5_ RTR  --- 5 message 32 [0 ffffffff f 800] ------- [15:255 -1:255 32 0] 
r 0.235644055 _17_ RTR  --- 5 message 32 [0 ffffffff f 800] ------- [15:255 -1:255 32 0] 
r 0.235644160 _11_ RTR  --- 5 message 32 [0 ffffffff f 800] ------- [15:255 -1:255 32 0] 
r 0.235644391 _22_ RTR  --- 5 message 32 [0 ffffffff f 800] ------- [15:255 -1:255 32 0] 
s 0.333839210 _12_ RTR  --- 6 message 32 [0 0 0 0] ------- [12:255 -1:255 32 0] 
s 0.333994210 _12_ MAC  --- 6 message 90 [0 ffffffff c 800] ------- [12:255 -1:255 32 0] 
r 0.334715112 _6_ MAC  --- 6 message 32 [0 ffffffff c 800] ------- [12:255 -1:255 32 0] 
r 0.334715174 _10_ MAC  --- 6 message 32 [0 ffffffff c 800] ------- [12:255 -1:255 32 0] 
r 0.334715271 _25_ MAC  --- 6 message 32 [0 ffffffff c 800] ------- [12:255 -1:255 32 0] 
r 0.334715329 _26_ MAC  --- 6 message 32 [0 ffffffff c 800] ------- [12:255 -1:255 32 0] 
r 0.334715409 _9_ MAC  --- 6 message 32 [0 ffffffff c 800] ------- [12:255 -1:255 32 0] 
r 0.334715502 _24_ MAC  --- 6 message 32 [0 ffffffff c 800] ------- [12:255 -1:255 32 0] 
r 0.334740112 _6_ RTR  --- 6 message 32 [0 ffffffff c 800] ------- [12:255 -1:255 32 0] 
r 0.334740174 _10_ RTR  --- 6 message 32 [0 ffffffff c 800] ------- [12:255 -1:255 32 0] 
r 0.334740271 _25_ RTR  --- 6 message 32 [0 ffffffff c 800] ------- [12:255 -1:255 32 0] 
r 0.334740329 _26_ RTR  --- 6 message 32 [0 ffffffff c 800] ------- [12:255 -1:255 32 0] 
r 0.334740409 _9_ RTR  --- 6 message 32 [0 ffffffff c 800] ------- [12:255 -1:255 32 0] 
r 0.334740502 _24_ RTR  --- 6 message 32 [0 ffffffff c 800] ------- [12:255 -1:255 32 0] 
s 0.351472650 _18_ RTR  --- 7 message 32 [0 0 0 0] ------- [18:255 -1:255 32 0] 
s 0.351847650 _18_ MAC  --- 7 message 90 [0 ffffffff 12 800] ------- [18:255 -1:255 32 0] 
r 0.352568364 _28_ MAC  --- 7 message 32 [0 ffffffff 12 800] ------- [18:255 -1:255 32 0] 
r 0.352568851 _17_ MAC  --- 7 message 32 [0 ffffffff 12 800] ------- [18:255 -1:255 32 0] 
r 0.352568974 _19_ MAC  --- 7 message 32 [0 ffffffff 12 800] ------- [18:255 -1:255 32 0] 
r 0.352593364 _28_ RTR  --- 7 message 32 [0 ffffffff 12 800] ------- [18:255 -1:255 32 0] 
r 0.352593851 _17_ RTR  --- 7 message 32 [0 ffffffff 12 800] ------- [18:255 -1:255 32 0] 
r 0.352593974 _19_ RTR  --- 7 message 32 [0 ffffffff 12 800] ------- [18:255 -1:255 32 0] 
s 0.436386259 _29_ RTR  --- 8 message 32 [0 0 0 0] ------- [29:255 -1:255 32 0] 
s 0.436701259 _29_ MAC  --- 8 message 90 [0 ffffffff 1d 800] ------- [29:255 -1:255 32 0] 
r 0.437421791 _1_ MAC  --- 8 message 32 [0 ffffffff 1d 800] ------- [29:255 -1:255 32 0] 
r 0.437422011 _10_ MAC  --- 8 message 32 [0 ffffffff 1d 800] ------- [29:255 -1:255 32 0] 
r 0.437422067 _25_ MAC  --- 8 message 32 [0 ffffffff 1d 800] ------- [29:255 -1:255 32 0] 
r 0.437422439 _8_ MAC  --- 8 message 32 [0 ffffffff 1d 800] ------- [29:255 -1:255 32 0] 
r 0.437446791 _1_ RTR  --- 8 message 32 [0 ffffffff 1d 800] ------- [29:255 -1:255 32 0] 
r 0.437447011 _10_ RTR  --- 8 message 32 [0 ffffffff 1d 800] ------- [29:255 -1:255 32 0] 
r 0.437447067 _25_ RTR  --- 8 message 32 [0 ffffffff 1d 800] ------- [29:255 -1:255 32 0] 
r 0.437447439 _8_ RTR  --- 8 message 32 [0 ffffffff 1d 800] ------- [29:255 -1:255 32 0] 
s 0.470117073 _8_ RTR  --- 9 message 32 [0 0 0 0] ------- [8:255 -1:255 32 0] 
s 0.470652073 _8_ MAC  --- 9 message 90 [0 ffffffff 8 800] ------- [8:255 -1:255 32 0] 
r 0.471372852 _1_ MAC  --- 9 message 32 [0 ffffffff 8 800] ------- [8:255 -1:255 32 0] 
r 0.471372996 _20_ MAC  --- 9 message 32 [0 ffffffff 8 800] ------- [8:255 -1:255 32 0] 
r 0.471373220 _25_ MAC  --- 9 message 32 [0 ffffffff 8 800] ------- [8:255 -1:255 32 0] 
r 0.471373237 _23_ MAC  --- 9 message 32 [0 ffffffff 8 800] ------- [8:255 -1:255 32 0] 
r 0.471373253 _29_ MAC  --- 9 message 32 [0 ffffffff 8 800] ------- [8:255 -1:255 32 0] 
r 0.471373290 _9_ MAC  --- 9 message 32 [0 ffffffff 8 800] ------- [8:255 -1:255 32 0] 
r 0.471373361 _10_ MAC  --- 9 message 32 [0 ffffffff 8 800] ------- [8:255 -1:255 32 0] 
r 0.471397852 _1_ RTR  --- 9 message 32 [0 ffffffff 8 800] ------- [8:255 -1:255 32 0] 
r 0.471397996 _20_ RTR  --- 9 message 32 [0 ffffffff 8 800] ------- [8:255 -1:255 32 0] 
r 0.471398220 _25_ RTR  --- 9 message 32 [0 ffffffff 8 800] ------- [8:255 -1:255 32 0] 
r 0.471398237 _23_ RTR  --- 9 message 32 [0 ffffffff 8 800] ------- [8:255 -1:255 32 0] 
r 0.471398253 _29_ RTR  --- 9 message 32 [0 ffffffff 8 800] ------- [8:255 -1:255 32 0] 
r 0.471398290 _9_ RTR  --- 9 message 32 [0 ffffffff 8 800] ------- [8:255 -1:255 32 0] 
r 0.471398361 _10_ RTR  --- 9 message 32 [0 ffffffff 8 800] ------- [8:255 -1:255 32 0] 
s 0.521504883 _22_ RTR  --- 10 message 32 [0 0 0 0] ------- [22:255 -1:255 32 0] 
s 0.521659883 _22_ MAC  --- 10 message 90 [0 ffffffff 16 800] ------- [22:255 -1:255 32 0] 
r 0.522380223 _13_ MAC  --- 10 message 32 [0 ffffffff 16 800] ------- [22:255 -1:255 32 0] 
r 0.522380577 _27_ MAC  --- 10 message 32 [0 ffffffff 16 800] ------- [22:255 -1:255 32 0] 
r 0.522380671 _2_ MAC  --- 10 message 32 [0 ffffffff 16 800] ------- [22:255 -1:255 32 0] 
r 0.522380781 _11_ MAC  --- 10 message 32 [0 ffffffff 16 800] ------- [22:255 -1:255 32 0] 
r 0.522380927 _3_ MAC  --- 10 message 32 [0 ffffffff 16 800] ------- [22:255 -1:255 32 0] 
r 0.522381044 _15_ MAC  --- 10 message 32 [0 ffffffff 16 800] ------- [22:255 -1:255 32 0] 
r 0.522405223 _13_ RTR  --- 10 message 32 [0 ffffffff 16 800] ------- [22:255 -1:255 32 0] 
r 0.522405577 _27_ RTR  --- 10 message 32 [0 ffffffff 16 800] ------- [22:255 -1:255 32 0] 
r 0.522405671 _2_ RTR  --- 10 message 32 [0 ffffffff 16 800] ------- [22:255 -1:255 32 0] 
r 0.522405781 _11_ RTR  --- 10 message 32 [0 ffffffff 16 800] ------- [22:255 -1:255 32 0] 
r 0.522405927 _3_ RTR  --- 10 message 32 [0 ffffffff 16 800] ------- [22:255 -1:255 32 0] 
r 0.522406044 _15_ RTR  --- 10 message 32 [0 ffffffff 16 800] ------- [22:255 -1:255 32 0] 
s 0.556838879 _28_ AGT  --- 11 cbr 512 [0 0 0 0] ------- [28:0 29:0 32 0] [0] 0 0
r 0.556838879 _28_ RTR  --- 11 cbr 512 [0 0 0 0] ------- [28:0 29:0 32 0] [0] 0 0
s 0.627186592 _10_ RTR  --- 12 message 32 [0 0 0 0] ------- [10:255 -1:255 32 0] 
s 0.627321592 _10_ MAC  --- 12 message 90 [0 ffffffff a 800] ------- [10:255 -1:255 32 0] 
r 0.628041776 _25_ MAC  --- 12 message 32 [0 ffffffff a 800] ------- [10:255 -1:255 32 0] 
r 0.628042158 _1_ MAC  --- 12 message 32 [0 ffffffff a 800] ------- [10:255 -1:255 32 0] 
r 0.628042344 _29_ MAC  --- 12 message 32 [0 ffffffff a 800] ------- [10:255 -1:255 32 0] 
r 0.628042361 _9_ MAC  --- 12 message 32 [0 ffffffff a 800] ------- [10:255 -1:255 32 0] 
r 0.628042544 _26_ MAC  --- 12 message 32 [0 ffffffff a 800] ------- [10:255 -1:255 32 0] 
r 0.628042557 _12_ MAC  --- 12 message 32 [0 ffffffff a 800] ------- [10:255 -1:255 32 0] 
r 0.628042880 _8_ MAC  --- 12 message 32 [0 ffffffff a 800] ------- [10:255 -1:255 32 0] 
r 0.628066776 _25_ RTR  --- 12 message 32 [0 ffffffff a 800] ------- [10:255 -1:255 32 0] 
r 0.628067158 _1_ RTR  --- 12 message 32 [0 ffffffff a 800] ------- [10:255 -1:255 32 0] 
r 0.628067344 _29_ RTR  --- 12 message 32 [0 ffffffff a 800] ------- [10:255 -1:255 32 0] 
r 0.628067361 _9_ RTR  --- 12 message 32 [0 ffffffff a 800] ------- [10:255 -1:255 32 0] 
r 0.628067544 _26_ RTR  --- 12 message 32 [0 ffffffff a 800] ------- [10:255 -1:255 32 0] 
r 0.628067557 _12_ RTR  --- 12 message 32 [0 ffffffff a 800] ------- [10:255 -1:255 32 0] 
r 0.628067880 _8_ RTR  --- 12 message 32 [0 ffffffff a 800] ------- [10:255 -1:255 32 0] 
s 0.634670006 _6_ RTR  --- 13 message 32 [0 0 0 0] ------- [6:255 -1:255 32 0] 
s 0.634865006 _6_ MAC  --- 13 message 90 [0 ffffffff 6 800] ------- [6:255 -1:255 32 0] 
r 0.635585791 _24_ MAC  --- 13 message 32 [0 ffffffff 6 800] ------- [6:255 -1:255 32 0] 
r 0.635585908 _12_ MAC  --- 13 message 32 [0 ffffffff 6 800] ------- [6:255 -1:255 32 0] 
r 0.635610791 _24_ RTR  --- 13 message 32 [0 ffffffff 6 800] ------- [6:255 -1:255 32 0] 
r 0.635610908 _12_ RTR  --- 13 message 32 [0 ffffffff 6 800] ------- [6:255 -1:255 32 0] 
s 0.705637875 _21_ RTR  --- 14 message 32 [0 0 0 0] ------- [21:255 -1:255 32 0] 
s 0.706012875 _21_ MAC  --- 14 message 90 [0 ffffffff 15 800] ------- [21:255 -1:255 32 0] 
r 0.706733375 _14_ MAC  --- 14 message 32 [0 ffffffff 15 800] ------- [21:255 -1:255 32 0] 
r 0.706733528 _24_ MAC  --- 14 message 32 [0 ffffffff 15 800] ------- [21:255 -1:255 32 0] 
r 0.706733558 _4_ MAC  --- 14 message 32 [0 ffffffff 15 800] ------- [21:255 -1:255 32 0] 
r 0.706733598 _11_ MAC  --- 14 message 32 [0 ffffffff 15 800] ------- [21:255 -1:255 32 0] 
r 0.706733920 _3_ MAC  --- 14 message 32 [0 ffffffff 15 800] ------- [21:255 -1:255 32 0] 
r 0.706734064 _0_ MAC  --- 14 message 32 [0 ffffffff 15 800] ------- [21:255 -1:255 32 0] 
r 0.706758375 _14_ RTR  --- 14 message 32 [0 ffffffff 15 800] ------- [21:255 -1:255 32 0] 
r 0.706758528 _24_ RTR  --- 14 message 32 [0 ffffffff 15 800] ------- [21:255 -1:255 32 0] 
r 0.706758558 _4_ RTR  --- 14 message 32 [0 ffffffff 15 800] ------- [21:255 -1:255 32 0] 
r 0.706758598 _11_ RTR  --- 14 message 32 [0 ffffffff 15 800] ------- [21:255 -1:255 32 0] 
r 0.706758920 _3_ RTR  --- 14 message 32 [0 ffffffff 15 800] ------- [21:255 -1:255 32 0] 
r 0.706759064 _0_ RTR  --- 14 message 32 [0 ffffffff 15 800] ------- [21:255 -1:255 32 0] 
s 0.821435127 _23_ RTR  --- 15 message 32 [0 0 0 0] ------- [23:255 -1:255 32 0] 
s 0.821550127 _23_ MAC  --- 15 message 90 [0 ffffffff 17 800] ------- [23:255 -1:255 32 0] 
r 0.822270648 _20_ MAC  --- 15 message 32 [0 ffffffff 17 800] ------- [23:255 -1:255 32 0] 
r 0.822271291 _8_ MAC  --- 15 message 32 [0 ffffffff 17 800] ------- [23:255 -1:255 32 0] 
r 0.822271455 _7_ MAC  --- 15 message 32 [0 ffffffff 17 800] ------- [23:255 -1:255 32 0] 
r 0.822295648 _20_ RTR  --- 15 message 32 [0 ffffffff 17 800] ------- [23:255 -1:255 32 0] 
r 0.822296291 _8_ RTR  --- 15 message 32 [0 ffffffff 17 800] ------- [23:255 -1:255 32 0] 
r 0.822296455 _7_ RTR  --- 15 message 32 [0 ffffffff 17 800] ------- [23:255 -1:255 32 0] 
s 0.848147771 _17_ RTR  --- 16 message 32 [0 0 0 0] ------- [17:255 -1:255 32 0] 
s 0.848382771 _17_ MAC  --- 16 message 90 [0 ffffffff 11 800] ------- [17:255 -1:255 32 0] 
r 0.849103216 _5_ MAC  --- 16 message 32 [0 ffffffff 11 800] ------- [17:255 -1:255 32 0] 
r 0.849103597 _15_ MAC  --- 16 message 32 [0 ffffffff 11 800] ------- [17:255 -1:255 32 0] 
r 0.849103923 _3_ MAC  --- 16 message 32 [0 ffffffff 11 800] ------- [17:255 -1:255 32 0] 
r 0.849103972 _18_ MAC  --- 16 message 32 [0 ffffffff 11 800] ------- [17:255 -1:255 32 0] 
r 0.849104009 _2_ MAC  --- 16 message 32 [0 ffffffff 11 800] ------- [17:255 -1:255 32 0] 
r 0.849128216 _5_ RTR  --- 16 message 32 [0 ffffffff 11 800] ------- [17:255 -1:255 32 0] 
r 0.849128597 _15_ RTR  --- 16 message 32 [0 ffffffff 11 800] ------- [17:255 -1:255 32 0] 
r 0.849128923 _3_ RTR  --- 16 message 32 [0 ffffffff 11 800] ------- [17:255 -1:255 32 0] 
r 0.849128972 _18_ RTR  --- 16 message 32 [0 ffffffff 11 800] ------- [17:255 -1:255 32 0] 
r 0.849129009 _2_ RTR  --- 16 message 32 [0 ffffffff 11 800] ------- [17:255 -1:255 32 0] 
s 0.882674688 _4_ RTR  --- 17 message 32 [0 0 0 0] ------- [4:255 -1:255 32 0] 
s 0.882909688 _4_ MAC  --- 17 message 90 [0 ffffffff 4 800] ------- [4:255 -1:255 32 0] 
r 0.883629874 _14_ MAC  --- 17 message 32 [0 ffffffff 4 800] ------- [4:255 -1:255 32 0] 
r 0.883630197 _0_ MAC  --- 17 message 32 [0 ffffffff 4 800] ------- [4:255 -1:255 32 0] 
r 0.883630371 _21_ MAC  --- 17 message 32 [0 ffffffff 4 800] ------- [4:255 -1:255 32 0] 
r 0.883630711 _11_ MAC  --- 17 message 32 [0 ffffffff 4 800] ------- [4:255 -1:255 32 0] 
r 0.883630775 _3_ MAC  --- 17 message 32 [0 ffffffff 4 800] ------- [4:255 -1:255 32 0] 
r 0.883630854 _24_ MAC  --- 17 message 32 [0 ffffffff 4 800] ------- [4:255 -1:255 32 0] 
r 0.883654874 _14_ RTR  --- 17 message 32 [0 ffffffff 4 800] ------- [4:255 -1:255 32 0] 
r 0.883655197 _0_ RTR  --- 17 message 32 [0 ffffffff 4 800] ------- [4:255 -1:255 32 0] 
r 0.883655371 _21_ RTR  --- 17 message 32 [0 ffffffff 4 800] ------- [4:255 -1:255 32 0] 
r 0.883655711 _11_ RTR  --- 17 message 32 [0 ffffffff 4 800] ------- [4:255 -1:255 32 0] 
r 0.883655775 _3_ RTR  --- 17 message 32 [0 ffffffff 4 800] ------- [4:255 -1:255 32 0] 
r 0.883655854 _24_ RTR  --- 17 message 32 [0 ffffffff 4 800] ------- [4:255 -1:255 32 0] 
s 0.935449221 _25_ RTR  --- 18 message 32 [0 0 0 0] ------- [25:255 -1:255 32 0] 
s 0.935884221 _25_ MAC  --- 18 message 90 [0 ffffffff 19 800] ------- [25:255 -1:255 32 0] 
r 0.936604405 _10_ MAC  --- 18 message 32 [0 ffffffff 19 800] ------- [25:255 -1:255 32 0] 
r 0.936604710 _1_ MAC  --- 18 message 32 [0 ffffffff 19 800] ------- [25:255 -1:255 32 0] 
r 0.936604838 _9_ MAC  --- 18 message 32 [0 ffffffff 19 800] ------- [25:255 -1:255 32 0] 
r 0.936605029 _29_ MAC  --- 18 message 32 [0 ffffffff 19 800] ------- [25:255 -1:255 32 0] 
r 0.936605055 _26_ MAC  --- 18 message 32 [0 ffffffff 19 800] ------- [25:255 -1:255 32 0] 
r 0.936605282 _12_ MAC  --- 18 message 32 [0 ffffffff 19 800] ------- [25:255 -1:255 32 0] 
r 0.936605368 _8_ MAC  --- 18 message 32 [0 ffffffff 19 800] ------- [25:255 -1:255 32 0] 
r 0.936629405 _10_ RTR  --- 18 message 32 [0 ffffffff 19 800] ------- [25:255 -1:255 32 0] 
r 0.936629710 _1_ RTR  --- 18 message 32 [0 ffffffff 19 800] ------- [25:255 -1:255 32 0] 
r 0.936629838 _9_ RTR  --- 18 message 32 [0 ffffffff 19 800] ------- [25:255 -1:255 32 0] 
r 0.936630029 _29_ RTR  --- 18 message 32 [0 ffffffff 19 800] ------- [25:255 -1:255 32 0] 
r 0.936630055 _26_ RTR  --- 18 message 32 [0 ffffffff 19 800] ------- [25:255 -1:255 32 0] 
r 0.936630282 _12_ RTR  --- 18 message 32 [0 ffffffff 19 800] ------- [25:255 -1:255 32 0] 
r 0.936630368 _8_ RTR  --- 18 message 32 [0 ffffffff 19 800] ------- [25:255 -1:255 32 0] 
s 1.039009780 _24_ RTR  --- 19 message 32 [0 0 0 0] ------- [24:255 -1:255 32 0] 
s 1.039404780 _24_ MAC  --- 19 message 90 [0 ffffffff 18 800] ------- [24:255 -1:255 32 0] 
r 1.040125433 _21_ MAC  --- 19 message 32 [0 ffffffff 18 800] ------- [24:255 -1:255 32 0] 
r 1.040125564 _6_ MAC  --- 19 message 32 [0 ffffffff 18 800] ------- [24:255 -1:255 32 0] 
r 1.040125770 _14_ MAC  --- 19 message 32 [0 ffffffff 18 800] ------- [24:255 -1:255 32 0] 
r 1.040125946 _4_ MAC  --- 19 message 32 [0 ffffffff 18 800] ------- [24:255 -1:255 32 0] 
r 1.040126072 _12_ MAC  --- 19 message 32 [0 ffffffff 18 800] ------- [24:255 -1:255 32 0] 
r 1.040126093 _11_ MAC  --- 19 message 32 [0 ffffffff 18 800] ------- [24:255 -1:255 32 0] 
r 1.040150433 _21_ RTR  --- 19 message 32 [0 ffffffff 18 800] ------- [24:255 -1:255 32 0] 
r 1.040150564 _6_ RTR  --- 19 message 32 [0 ffffffff 18 800] ------- [24:255 -1:255 32 0] 
r 1.040150770 _14_ RTR  --- 19 message 32 [0 ffffffff 18 800] ------- [24:255 -1:255 32 0] 
r 1.040150946 _4_ RTR  --- 19 message 32 [0 ffffffff 18 800] ------- [24:255 -1:255 32 0] 
r 1.040151072 _12_ RTR  --- 19 message 32 [0 ffffffff 18 800] ------- [24:255 -1:255 32 0] 
r 1.040151093 _11_ RTR  --- 19 message 32 [0 ffffffff 18 800] ------- [24:255 -1:255 32 0] 
s 1.119657716 _1_ RTR  --- 20 message 32 [0 0 0 0] ------- [1:255 -1:255 32 0] 
s 1.119832716 _1_ MAC  --- 20 message 90 [0 ffffffff 1 800] ------- [1:255 -1:255 32 0] 
r 1.120553205 _25_ MAC  --- 20 message 32 [0 ffffffff 1 800] ------- [1:255 -1:255 32 0] 
r 1.120553247 _29_ MAC  --- 20 message 32 [0 ffffffff 1 800] ------- [1:255 -1:255 32 0] 
r 1.120553282 _10_ MAC  --- 20 message 32 [0 ffffffff 1 800] ------- [1:255 -1:255 32 0] 
r 1.120553494 _8_ MAC  --- 20 message 32 [0 ffffffff 1 800] ------- [1:255 -1:255 32 0] 
r 1.120553644 _9_ MAC  --- 20 message 32 [0 ffffffff 1 800] ------- [1:255 -1:255 32 0] 
r 1.120553921 _26_ MAC  --- 20 message 32 [0 ffffffff 1 800] ------- [1:255 -1:255 32 0] 
r 1.120578205 _25_ RTR  --- 20 message 32 [0 ffffffff 1 800] ------- [1:255 -1:255 32 0] 
r 1.120578247 _29_ RTR  --- 20 message 32 [0 ffffffff 1 800] ------- [1:255 -1:255 32 0] 
r 1.120578282 _10_ RTR  --- 20 message 32 [0 ffffffff 1 800] ------- [1:255 -1:255 32 0] 
r 1.120578494 _8_ RTR  --- 20 message 32 [0 ffffffff 1 800] ------- [1:255 -1:255 32 0] 
r 1.120578644 _9_ RTR  --- 20 message 32 [0 ffffffff 1 800] ------- [1:255 -1:255 32 0] 
r 1.120578921 _26_ RTR  --- 20 message 32 [0 ffffffff 1 800] ------- [1:255 -1:255 32 0] 
s 1.277890258 _9_ RTR  --- 21 message 32 [0 0 0 0] ------- [9:255 -1:255 32 0] 
s 1.278565258 _9_ MAC  --- 21 message 90 [0 ffffffff 9 800] ------- [9:255 -1:255 32 0] 
r 1.279285551 _26_ MAC  --- 21 message 32 [0 ffffffff 9 800] ------- [9:255 -1:255 32 0] 
r 1.279285875 _25_ MAC  --- 21 message 32 [0 ffffffff 9 800] ------- [9:255 -1:255 32 0] 
r 1.279286027 _10_ MAC  --- 21 message 32 [0 ffffffff 9 800] ------- [9:255 -1:255 32 0] 
r 1.279286186 _1_ MAC  --- 21 message 32 [0 ffffffff 9 800] ------- [9:255 -1:255 32 0] 
r 1.279286328 _20_ MAC  --- 21 message 32 [0 ffffffff 9 800] ------- [9:255 -1:255 32 0] 
r 1.279286374 _7_ MAC  --- 21 message 32 [0 ffffffff 9 800] ------- [9:255 -1:255 32 0] 
r 1.279286457 _12_ MAC  --- 21 message 32 [0 ffffffff 9 800] ------- [9:255 -1:255 32 0] 
r 1.279286475 _8_ MAC  --- 21 message 32 [0 ffffffff 9 800] ------- [9:255 -1:255 32 0] 
r 1.279310551 _26_ RTR  --- 21 message 32 [0 ffffffff 9 800] ------- [9:255 -1:255 32 0] 
r 1.279310875 _25_ RTR  --- 21 message 32 [0 ffffffff 9 800] ------- [9:255 -1:255 32 0] 
r 1.279311027 _10_ RTR  --- 21 message 32 [0 ffffffff 9 800] ------- [9:255 -1:255 32 0] 
r 1.279311186 _1_ RTR  --- 21 message 32 [0 ffffffff 9 800] ------- [9:255 -1:255 32 0] 
r 1.279311328 _20_ RTR  --- 21 message 32 [0 ffffffff 9 800] ------- [9:255 -1:255 32 0] 
r 1.279311374 _7_ RTR  --- 21 message 32 [0 ffffffff 9 800] ------- [9:255 -1:255 32 0] 
r 1.279311457 _12_ RTR  --- 21 message 32 [0 ffffffff 9 800] ------- [9:255 -1:255 32 0] 
r 1.279311475 _8_ RTR  --- 21 message 32 [0 ffffffff 9 800] ------- [9:255 -1:255 32 0] 
s 1.281327089 _14_ RTR  --- 22 message 32 [0 0 0 0] ------- [14:255 -1:255 32 0] 
s 1.281462089 _14_ MAC  --- 22 message 90 [0 ffffffff e 800] ------- [14:255 -1:255 32 0] 
r 1.282182276 _4_ MAC  --- 22 message 32 [0 ffffffff e 800] ------- [14:255 -1:255 32 0] 
r 1.282182590 _21_ MAC  --- 22 message 32 [0 ffffffff e 800] ------- [14:255 -1:255 32 0] 
r 1.282182778 _0_ MAC  --- 22 message 32 [0 ffffffff e 800] ------- [14:255 -1:255 32 0] 
r 1.282183020 _11_ MAC  --- 22 message 32 [0 ffffffff e 800] ------- [14:255 -1:255 32 0] 
r 1.282183080 _24_ MAC  --- 22 message 32 [0 ffffffff e 800] ------- [14:255 -1:255 32 0] 
r 1.282183156 _3_ MAC  --- 22 message 32 [0 ffffffff e 800] ------- [14:255 -1:255 32 0] 
r 1.282207276 _4_ RTR  --- 22 message 32 [0 ffffffff e 800] ------- [14:255 -1:255 32 0] 
r 1.282207590 _21_ RTR  --- 22 message 32 [0 ffffffff e 800] ------- [14:255 -1:255 32 0] 
r 1.282207778 _0_ RTR  --- 22 message 32 [0 ffffffff e 800] ------- [14:255 -1:255 32 0] 
r 1.282208020 _11_ RTR  --- 22 message 32 [0 ffffffff e 800] ------- [14:255 -1:255 32 0] 
r 1.282208080 _24_ RTR  --- 22 message 32 [0 ffffffff e 800] ------- [14:255 -1:255 32 0] 
r 1.282208156 _3_ RTR  --- 22 message 32 [0 ffffffff e 800] ------- [14:255 -1:255 32 0] 
s 1.388842989 _26_ RTR  --- 23 message 32 [0 0 0 0] ------- [26:255 -1:255 32 0] 
s 1.389297989 _26_ MAC  --- 23 message 90 [0 ffffffff 1a 800] ------- [26:255 -1:255 32 0] 
r 1.390018282 _9_ MAC  --- 23 message 32 [0 ffffffff 1a 800] ------- [26:255 -1:255 32 0] 
r 1.390018822 _25_ MAC  --- 23 message 32 [0 ffffffff 1a 800] ------- [26:255 -1:255 32 0] 
r 1.390018940 _10_ MAC  --- 23 message 32 [0 ffffffff 1a 800] ------- [26:255 -1:255 32 0] 
r 1.390018990 _7_ MAC  --- 23 message 32 [0 ffffffff 1a 800] ------- [26:255 -1:255 32 0] 
r 1.390019046 _0_ MAC  --- 23 message 32 [0 ffffffff 1a 800] ------- [26:255 -1:255 32 0] 
r 1.390019107 _12_ MAC  --- 23 message 32 [0 ffffffff 1a 800] ------- [26:255 -1:255 32 0] 
r 1.390019194 _1_ MAC  --- 23 message 32 [0 ffffffff 1a 800] ------- [26:255 -1:255 32 0] 
r 1.390019211 _20_ MAC  --- 23 message 32 [0 ffffffff 1a 800] ------- [26:255 -1:255 32 0] 
r 1.390043282 _9_ RTR  --- 23 message 32 [0 ffffffff 1a 800] ------- [26:255 -1:255 32 0] 
r 1.390043822 _25_ RTR  --- 23 message 32 [0 ffffffff 1a 800] ------- [26:255 -1:255 32 0] 
r 1.390043940 _10_ RTR  --- 23 message 32 [0 ffffffff 1a 800] ------- [26:255 -1:255 32 0] 
r 1.390043990 _7_ RTR  --- 23 message 32 [0 ffffffff 1a 800] ------- [26:255 -1:255 32 0] 
r 1.390044046 _0_ RTR  --- 23 message 32 [0 ffffffff 1a 800] ------- [26:255 -1:255 32 0] 
r 1.390044107 _12_ RTR  --- 23 message 32 [0 ffffffff 1a 800] ------- [26:255 -1:255 32 0] 
r 1.390044194 _1_ RTR  --- 23 message 32 [0 ffffffff 1a 800] ------- [26:255 -1:255 32 0] 
r 1.390044211 _20_ RTR  --- 23 message 32 [0 ffffffff 1a 800] ------- [26:255 -1:255 32 0] 
s 1.607278916 _5_ RTR  --- 24 message 32 [0 0 0 0] ------- [5:255 -1:255 32 0] 
s 1.607673916 _5_ MAC  --- 24 message 90 [0 ffffffff 5 800] ------- [5:255 -1:255 32 0] 
r 1.608394360 _17_ MAC  --- 24 message 32 [0 ffffffff 5 800] ------- [5:255 -1:255 32 0] 
r 1.608394711 _15_ MAC  --- 24 message 32 [0 ffffffff 5 800] ------- [5:255 -1:255 32 0] 
r 1.608395025 _2_ MAC  --- 24 message 32 [0 ffffffff 5 800] ------- [5:255 -1:255 32 0] 