M 0.00000 0 (774.49, 123.35, 0.00), (774.49, 123.35), 40.00
s 0.003091411 _0_ RTR  --- 0 message 32 [0 0 0 0] ------- [0:255 -1:255 32 0] 
r 0.004211429 _20_ RTR  --- 0 message 32 [0 ffffffff 0 800] ------- [0:255 -1:255 32 0] 
r 0.004211558 _17_ RTR  --- 0 message 32 [0 ffffffff 0 800] ------- [0:255 -1:255 32 0] 
r 0.004211858 _2_ RTR  --- 0 message 32 [0 ffffffff 0 800] ------- [0:255 -1:255 32 0] 
r 0.004211860 _8_ RTR  --- 0 message 32 [0 ffffffff 0 800] ------- [0:255 -1:255 32 0] 
r 0.004211883 _22_ RTR  --- 0 message 32 [0 ffffffff 0 800] ------- [0:255 -1:255 32 0] 
r 0.004211990 _16_ RTR  --- 0 message 32 [0 ffffffff 0 800] ------- [0:255 -1:255 32 0] 
r 0.004212024 _25_ RTR  --- 0 message 32 [0 ffffffff 0 800] ------- [0:255 -1:255 32 0] 
r 0.004212030 _18_ RTR  --- 0 message 32 [0 ffffffff 0 800] ------- [0:255 -1:255 32 0] 
r 0.004212079 _11_ RTR  --- 0 message 32 [0 ffffffff 0 800] ------- [0:255 -1:255 32 0] 
s 0.037458776 _2_ RTR  --- 1 message 32 [0 0 0 0] ------- [2:255 -1:255 32 0] 
r 0.038558829 _22_ RTR  --- 1 message 32 [0 ffffffff 2 800] ------- [2:255 -1:255 32 0] 
r 0.038559055 _18_ RTR  --- 1 message 32 [0 ffffffff 2 800] ------- [2:255 -1:255 32 0] 
r 0.038559184 _17_ RTR  --- 1 message 32 [0 ffffffff 2 800] ------- [2:255 -1:255 32 0] 
r 0.038559223 _0_ RTR  --- 1 message 32 [0 ffffffff 2 800] ------- [2:255 -1:255 32 0] 
r 0.038559240 _20_ RTR  --- 1 message 32 [0 ffffffff 2 800] ------- [2:255 -1:255 32 0] 
r 0.038559383 _16_ RTR  --- 1 message 32 [0 ffffffff 2 800] ------- [2:255 -1:255 32 0] 
r 0.038559482 _25_ RTR  --- 1 message 32 [0 ffffffff 2 800] ------- [2:255 -1:255 32 0] 
s 0.087462768 _13_ RTR  --- 2 message 32 [0 0 0 0] ------- [13:255 -1:255 32 0] 
r 0.088503056 _26_ RTR  --- 2 message 32 [0 ffffffff d 800] ------- [13:255 -1:255 32 0] 
r 0.088503126 _1_ RTR  --- 2 message 32 [0 ffffffff d 800] ------- [13:255 -1:255 32 0] 
r 0.088503260 _6_ RTR  --- 2 message 32 [0 ffffffff d 800] ------- [13:255 -1:255 32 0] 
r 0.088503375 _12_ RTR  --- 2 message 32 [0 ffffffff d 800] ------- [13:255 -1:255 32 0] 
r 0.088503426 _15_ RTR  --- 2 message 32 [0 ffffffff d 800] ------- [13:255 -1:255 32 0] 
r 0.088503440 _19_ RTR  --- 2 message 32 [0 ffffffff d 800] ------- [13:255 -1:255 32 0] 
r 0.088503442 _28_ RTR  --- 2 message 32 [0 ffffffff d 800] ------- [13:255 -1:255 32 0] 
r 0.088503450 _16_ RTR  --- 2 message 32 [0 ffffffff d 800] ------- [13:255 -1:255 32 0] 
r 0.088503463 _25_ RTR  --- 2 message 32 [0 ffffffff d 800] ------- [13:255 -1:255 32 0] 
r 0.088503480 _4_ RTR  --- 2 message 32 [0 ffffffff d 800] ------- [13:255 -1:255 32 0] 
r 0.088503513 _9_ RTR  --- 2 message 32 [0 ffffffff d 800] ------- [13:255 -1:255 32 0] 
s 0.177365656 _3_ RTR  --- 3 message 32 [0 0 0 0] ------- [3:255 -1:255 32 0] 
r 0.178305821 _10_ RTR  --- 3 message 32 [0 ffffffff 3 800] ------- [3:255 -1:255 32 0] 
r 0.178305836 _15_ RTR  --- 3 message 32 [0 ffffffff 3 800] ------- [3:255 -1:255 32 0] 
r 0.178305868 _28_ RTR  --- 3 message 32 [0 ffffffff 3 800] ------- [3:255 -1:255 32 0] 
r 0.178305982 _4_ RTR  --- 3 message 32 [0 ffffffff 3 800] ------- [3:255 -1:255 32 0] 
r 0.178305987 _29_ RTR  --- 3 message 32 [0 ffffffff 3 800] ------- [3:255 -1:255 32 0] 
r 0.178306001 _9_ RTR  --- 3 message 32 [0 ffffffff 3 800] ------- [3:255 -1:255 32 0] 
r 0.178306062 _24_ RTR  --- 3 message 32 [0 ffffffff 3 800] ------- [3:255 -1:255 32 0] 
r 0.178306072 _7_ RTR  --- 3 message 32 [0 ffffffff 3 800] ------- [3:255 -1:255 32 0] 
r 0.178306076 _27_ RTR  --- 3 message 32 [0 ffffffff 3 800] ------- [3:255 -1:255 32 0] 
r 0.178306127 _14_ RTR  --- 3 message 32 [0 ffffffff 3 800] ------- [3:255 -1:255 32 0] 
r 0.178306160 _19_ RTR  --- 3 message 32 [0 ffffffff 3 800] ------- [3:255 -1:255 32 0] 
r 0.178306177 _21_ RTR  --- 3 message 32 [0 ffffffff 3 800] ------- [3:255 -1:255 32 0] 
r 0.178306193 _23_ RTR  --- 3 message 32 [0 ffffffff 3 800] ------- [3:255 -1:255 32 0] 
r 0.178306234 _12_ RTR  --- 3 message 32 [0 ffffffff 3 800] ------- [3:255 -1:255 32 0] 
r 0.178306265 _5_ RTR  --- 3 message 32 [0 ffffffff 3 800] ------- [3:255 -1:255 32 0] 
r 0.178306410 _6_ RTR  --- 3 message 32 [0 ffffffff 3 800] ------- [3:255 -1:255 32 0] 
s 0.191634337 _19_ RTR  --- 4 message 32 [0 0 0 0] ------- [19:255 -1:255 32 0] 
r 0.192634516 _4_ RTR  --- 4 message 32 [0 ffffffff 13 800] ------- [19:255 -1:255 32 0] 
r 0.192634615 _7_ RTR  --- 4 message 32 [0 ffffffff 13 800] ------- [19:255 -1:255 32 0] 
r 0.192634645 _28_ RTR  --- 4 message 32 [0 ffffffff 13 800] ------- [19:255 -1:255 32 0] 
r 0.192634672 _27_ RTR  --- 4 message 32 [0 ffffffff 13 800] ------- [19:255 -1:255 32 0] 
r 0.192634792 _15_ RTR  --- 4 message 32 [0 ffffffff 13 800] ------- [19:255 -1:255 32 0] 
r 0.192634840 _14_ RTR  --- 4 message 32 [0 ffffffff 13 800] ------- [19:255 -1:255 32 0] 
r 0.192634841 _3_ RTR  --- 4 message 32 [0 ffffffff 13 800] ------- [19:255 -1:255 32 0] 
r 0.192634899 _1_ RTR  --- 4 message 32 [0 ffffffff 13 800] ------- [19:255 -1:255 32 0] 
r 0.192634907 _26_ RTR  --- 4 message 32 [0 ffffffff 13 800] ------- [19:255 -1:255 32 0] 
r 0.192634934 _21_ RTR  --- 4 message 32 [0 ffffffff 13 800] ------- [19:255 -1:255 32 0] 
r 0.192634942 _10_ RTR  --- 4 message 32 [0 ffffffff 13 800] ------- [19:255 -1:255 32 0] 
r 0.192635009 _13_ RTR  --- 4 message 32 [0 ffffffff 13 800] ------- [19:255 -1:255 32 0] 
r 0.192635065 _5_ RTR  --- 4 message 32 [0 ffffffff 13 800] ------- [19:255 -1:255 32 0] 
r 0.192635065 _9_ RTR  --- 4 message 32 [0 ffffffff 13 800] ------- [19:255 -1:255 32 0] 
r 0.192635073 _29_ RTR  --- 4 message 32 [0 ffffffff 13 800] ------- [19:255 -1:255 32 0] 
r 0.192635169 _12_ RTR  --- 4 message 32 [0 ffffffff 13 800] ------- [19:255 -1:255 32 0] 
s 0.234603229 _15_ RTR  --- 5 message 32 [0 0 0 0] ------- [15:255 -1:255 32 0] 
r 0.235643387 _28_ RTR  --- 5 message 32 [0 ffffffff f 800] ------- [15:255 -1:255 32 0] 
r 0.235643410 _3_ RTR  --- 5 message 32 [0 ffffffff f 800] ------- [15:255 -1:255 32 0] 
r 0.235643505 _9_ RTR  --- 5 message 32 [0 ffffffff f 800] ------- [15:255 -1:255 32 0] 
r 0.235643537 _4_ RTR  --- 5 message 32 [0 ffffffff f 800] ------- [15:255 -1:255 32 0] 
r 0.235643575 _10_ RTR  --- 5 message 32 [0 ffffffff f 800] ------- [15:255 -1:255 32 0] 
r 0.235643639 _24_ RTR  --- 5 message 32 [0 ffffffff f 800] ------- [15:255 -1:255 32 0] 
r 0.235643675 _12_ RTR  --- 5 message 32 [0 ffffffff f 800] ------- [15:255 -1:255 32 0] 
r 0.235643685 _19_ RTR  --- 5 message 32 [0 ffffffff f 800] ------- [15:255 -1:255 32 0] 
r 0.235643705 _7_ RTR  --- 5 message 32 [0 ffffffff f 800] ------- [15:255 -1:255 32 0] 
r 0.235643729 _27_ RTR  --- 5 message 32 [0 ffffffff f 800] ------- [15:255 -1:255 32 0] 
r 0.235643740 _29_ RTR  --- 5 message 32 [0 ffffffff f 800] ------- [15:255 -1:255 32 0] 
r 0.235643825 _6_ RTR  --- 5 message 32 [0 ffffffff f 800] ------- [15:255 -1:255 32 0] 
r 0.235643825 _14_ RTR  --- 5 message 32 [0 ffffffff f 800] ------- [15:255 -1:255 32 0] 
r 0.235643877 _23_ RTR  --- 5 message 32 [0 ffffffff f 800] ------- [15:255 -1:255 32 0] 
r 0.235643888 _13_ RTR  --- 5 message 32 [0 ffffffff f 800] ------- [15:255 -1:255 32 0] 
r 0.235643892 _21_ RTR  --- 5 message 32 [0 ffffffff f 800] ------- [15:255 -1:255 32 0] 
r 0.235643980 _26_ RTR  --- 5 message 32 [0 ffffffff f 800] ------- [15:255 -1:255 32 0] 
r 0.235643994 _5_ RTR  --- 5 message 32 [0 ffffffff f 800] ------- [15:255 -1:255 32 0] 
r 0.235644015 _1_ RTR  --- 5 message 32 [0 ffffffff f 800] ------- [15:255 -1:255 32 0] 
s 0.333839210 _12_ RTR  --- 6 message 32 [0 0 0 0] ------- [12:255 -1:255 32 0] 
r 0.334739427 _6_ RTR  --- 6 message 32 [0 ffffffff c 800] ------- [12:255 -1:255 32 0] 
r 0.334739476 _9_ RTR  --- 6 message 32 [0 ffffffff c 800] ------- [12:255 -1:255 32 0] 
r 0.334739599 _24_ RTR  --- 6 message 32 [0 ffffffff c 800] ------- [12:255 -1:255 32 0] 
r 0.334739655 _15_ RTR  --- 6 message 32 [0 ffffffff c 800] ------- [12:255 -1:255 32 0] 
r 0.334739788 _3_ RTR  --- 6 message 32 [0 ffffffff c 800] ------- [12:255 -1:255 32 0] 
r 0.334739800 _28_ RTR  --- 6 message 32 [0 ffffffff c 800] ------- [12:255 -1:255 32 0] 
r 0.334739817 _13_ RTR  --- 6 message 32 [0 ffffffff c 800] ------- [12:255 -1:255 32 0] 
r 0.334739922 _10_ RTR  --- 6 message 32 [0 ffffffff c 800] ------- [12:255 -1:255 32 0] 
r 0.334739938 _4_ RTR  --- 6 message 32 [0 ffffffff c 800] ------- [12:255 -1:255 32 0] 
r 0.334739961 _23_ RTR  --- 6 message 32 [0 ffffffff c 800] ------- [12:255 -1:255 32 0] 
r 0.334740042 _19_ RTR  --- 6 message 32 [0 ffffffff c 800] ------- [12:255 -1:255 32 0] 
s 0.351472650 _18_ RTR  --- 7 message 32 [0 0 0 0] ------- [18:255 -1:255 32 0] 
r 0.352592876 _22_ RTR  --- 7 message 32 [0 ffffffff 12 800] ------- [18:255 -1:255 32 0] 
r 0.352592930 _2_ RTR  --- 7 message 32 [0 ffffffff 12 800] ------- [18:255 -1:255 32 0] 
r 0.352593129 _16_ RTR  --- 7 message 32 [0 ffffffff 12 800] ------- [18:255 -1:255 32 0] 
r 0.352593167 _17_ RTR  --- 7 message 32 [0 ffffffff 12 800] ------- [18:255 -1:255 32 0] 
r 0.352593245 _25_ RTR  --- 7 message 32 [0 ffffffff 12 800] ------- [18:255 -1:255 32 0] 
r 0.352593269 _0_ RTR  --- 7 message 32 [0 ffffffff 12 800] ------- [18:255 -1:255 32 0] 
r 0.352593288 _20_ RTR  --- 7 message 32 [0 ffffffff 12 800] ------- [18:255 -1:255 32 0] 
r 0.352593426 _1_ RTR  --- 7 message 32 [0 ffffffff 12 800] ------- [18:255 -1:255 32 0] 
r 0.352593431 _26_ RTR  --- 7 message 32 [0 ffffffff 12 800] ------- [18:255 -1:255 32 0] 
r 0.352593474 _11_ RTR  --- 7 message 32 [0 ffffffff 12 800] ------- [18:255 -1:255 32 0] 
s 0.436386259 _29_ RTR  --- 8 message 32 [0 0 0 0] ------- [29:255 -1:255 32 0] 
r 0.437446425 _10_ RTR  --- 8 message 32 [0 ffffffff 1d 800] ------- [29:255 -1:255 32 0] 
r 0.437446590 _3_ RTR  --- 8 message 32 [0 ffffffff 1d 800] ------- [29:255 -1:255 32 0] 
r 0.437446665 _21_ RTR  --- 8 message 32 [0 ffffffff 1d 800] ------- [29:255 -1:255 32 0] 
r 0.437446680 _14_ RTR  --- 8 message 32 [0 ffffffff 1d 800] ------- [29:255 -1:255 32 0] 
r 0.437446680 _5_ RTR  --- 8 message 32 [0 ffffffff 1d 800] ------- [29:255 -1:255 32 0] 
r 0.437446687 _23_ RTR  --- 8 message 32 [0 ffffffff 1d 800] ------- [29:255 -1:255 32 0] 
r 0.437446752 _27_ RTR  --- 8 message 32 [0 ffffffff 1d 800] ------- [29:255 -1:255 32 0] 
r 0.437446770 _15_ RTR  --- 8 message 32 [0 ffffffff 1d 800] ------- [29:255 -1:255 32 0] 
r 0.437446772 _28_ RTR  --- 8 message 32 [0 ffffffff 1d 800] ------- [29:255 -1:255 32 0] 
r 0.437446786 _7_ RTR  --- 8 message 32 [0 ffffffff 1d 800] ------- [29:255 -1:255 32 0] 
r 0.437446806 _24_ RTR  --- 8 message 32 [0 ffffffff 1d 800] ------- [29:255 -1:255 32 0] 
r 0.437446826 _4_ RTR  --- 8 message 32 [0 ffffffff 1d 800] ------- [29:255 -1:255 32 0] 
r 0.437446848 _9_ RTR  --- 8 message 32 [0 ffffffff 1d 800] ------- [29:255 -1:255 32 0] 
r 0.437446995 _19_ RTR  --- 8 message 32 [0 ffffffff 1d 800] ------- [29:255 -1:255 32 0] 
s 0.470117073 _8_ RTR  --- 9 message 32 [0 0 0 0] ------- [8:255 -1:255 32 0] 
r 0.471397458 _11_ RTR  --- 9 message 32 [0 ffffffff 8 800] ------- [8:255 -1:255 32 0] 
r 0.471397501 _17_ RTR  --- 9 message 32 [0 ffffffff 8 800] ------- [8:255 -1:255 32 0] 
r 0.471397517 _20_ RTR  --- 9 message 32 [0 ffffffff 8 800] ------- [8:255 -1:255 32 0] 
r 0.471397522 _0_ RTR  --- 9 message 32 [0 ffffffff 8 800] ------- [8:255 -1:255 32 0] 
r 0.471397587 _25_ RTR  --- 9 message 32 [0 ffffffff 8 800] ------- [8:255 -1:255 32 0] 
r 0.471397644 _16_ RTR  --- 9 message 32 [0 ffffffff 8 800] ------- [8:255 -1:255 32 0] 
s 0.521504883 _22_ RTR  --- 10 message 32 [0 0 0 0] ------- [22:255 -1:255 32 0] 
r 0.522404936 _2_ RTR  --- 10 message 32 [0 ffffffff 16 800] ------- [22:255 -1:255 32 0] 
r 0.522405109 _18_ RTR  --- 10 message 32 [0 ffffffff 16 800] ------- [22:255 -1:255 32 0] 
r 0.522405300 _17_ RTR  --- 10 message 32 [0 ffffffff 16 800] ------- [22:255 -1:255 32 0] 
r 0.522405355 _0_ RTR  --- 10 message 32 [0 ffffffff 16 800] ------- [22:255 -1:255 32 0] 
r 0.522405372 _20_ RTR  --- 10 message 32 [0 ffffffff 16 800] ------- [22:255 -1:255 32 0] 
r 0.522405457 _16_ RTR  --- 10 message 32 [0 ffffffff 16 800] ------- [22:255 -1:255 32 0] 
r 0.522405561 _25_ RTR  --- 10 message 32 [0 ffffffff 16 800] ------- [22:255 -1:255 32 0] 
s 0.626302117 _10_ RTR  --- 11 message 32 [0 0 0 0] ------- [10:255 -1:255 32 0] 
r 0.627242283 _3_ RTR  --- 11 message 32 [0 ffffffff a 800] ------- [10:255 -1:255 32 0] 
r 0.627242283 _29_ RTR  --- 11 message 32 [0 ffffffff a 800] ------- [10:255 -1:255 32 0] 
r 0.627242463 _15_ RTR  --- 11 message 32 [0 ffffffff a 800] ------- [10:255 -1:255 32 0] 
r 0.627242471 _28_ RTR  --- 11 message 32 [0 ffffffff a 800] ------- [10:255 -1:255 32 0] 
r 0.627242527 _14_ RTR  --- 11 message 32 [0 ffffffff a 800] ------- [10:255 -1:255 32 0] 
r 0.627242538 _27_ RTR  --- 11 message 32 [0 ffffffff a 800] ------- [10:255 -1:255 32 0] 
r 0.627242545 _4_ RTR  --- 11 message 32 [0 ffffffff a 800] ------- [10:255 -1:255 32 0] 
r 0.627242549 _21_ RTR  --- 11 message 32 [0 ffffffff a 800] ------- [10:255 -1:255 32 0] 
r 0.627242557 _7_ RTR  --- 11 message 32 [0 ffffffff a 800] ------- [10:255 -1:255 32 0] 
r 0.627242574 _9_ RTR  --- 11 message 32 [0 ffffffff a 800] ------- [10:255 -1:255 32 0] 
r 0.627242574 _24_ RTR  --- 11 message 32 [0 ffffffff a 800] ------- [10:255 -1:255 32 0] 
r 0.627242579 _23_ RTR  --- 11 message 32 [0 ffffffff a 800] ------- [10:255 -1:255 32 0] 
r 0.627242610 _5_ RTR  --- 11 message 32 [0 ffffffff a 800] ------- [10:255 -1:255 32 0] 
r 0.627242722 _19_ RTR  --- 11 message 32 [0 ffffffff a 800] ------- [10:255 -1:255 32 0] 
r 0.627242829 _12_ RTR  --- 11 message 32 [0 ffffffff a 800] ------- [10:255 -1:255 32 0] 
s 0.633203961 _6_ RTR  --- 12 message 32 [0 0 0 0] ------- [6:255 -1:255 32 0] 
r 0.634604178 _12_ RTR  --- 12 message 32 [0 ffffffff 6 800] ------- [6:255 -1:255 32 0] 
r 0.634604436 _9_ RTR  --- 12 message 32 [0 ffffffff 6 800] ------- [6:255 -1:255 32 0] 
r 0.634604453 _13_ RTR  --- 12 message 32 [0 ffffffff 6 800] ------- [6:255 -1:255 32 0] 
r 0.634604557 _15_ RTR  --- 12 message 32 [0 ffffffff 6 800] ------- [6:255 -1:255 32 0] 
r 0.634604567 _24_ RTR  --- 12 message 32 [0 ffffffff 6 800] ------- [6:255 -1:255 32 0] 
r 0.634604677 _28_ RTR  --- 12 message 32 [0 ffffffff 6 800] ------- [6:255 -1:255 32 0] 
r 0.634604715 _3_ RTR  --- 12 message 32 [0 ffffffff 6 800] ------- [6:255 -1:255 32 0] 
r 0.634604727 _26_ RTR  --- 12 message 32 [0 ffffffff 6 800] ------- [6:255 -1:255 32 0] 
s 0.703066137 _21_ RTR  --- 13 message 32 [0 0 0 0] ------- [21:255 -1:255 32 0] 
r 0.704426231 _14_ RTR  --- 13 message 32 [0 ffffffff 15 800] ------- [21:255 -1:255 32 0] 
r 0.704426268 _5_ RTR  --- 13 message 32 [0 ffffffff 15 800] ------- [21:255 -1:255 32 0] 
r 0.704426399 _27_ RTR  --- 13 message 32 [0 ffffffff 15 800] ------- [21:255 -1:255 32 0] 
r 0.704426456 _7_ RTR  --- 13 message 32 [0 ffffffff 15 800] ------- [21:255 -1:255 32 0] 
r 0.704426543 _29_ RTR  --- 13 message 32 [0 ffffffff 15 800] ------- [21:255 -1:255 32 0] 
r 0.704426569 _10_ RTR  --- 13 message 32 [0 ffffffff 15 800] ------- [21:255 -1:255 32 0] 
r 0.704426637 _4_ RTR  --- 13 message 32 [0 ffffffff 15 800] ------- [21:255 -1:255 32 0] 
r 0.704426659 _3_ RTR  --- 13 message 32 [0 ffffffff 15 800] ------- [21:255 -1:255 32 0] 
r 0.704426697 _28_ RTR  --- 13 message 32 [0 ffffffff 15 800] ------- [21:255 -1:255 32 0] 
r 0.704426734 _19_ RTR  --- 13 message 32 [0 ffffffff 15 800] ------- [21:255 -1:255 32 0] 
r 0.704426799 _15_ RTR  --- 13 message 32 [0 ffffffff 15 800] ------- [21:255 -1:255 32 0] 
s 0.818871236 _23_ RTR  --- 14 message 32 [0 0 0 0] ------- [23:255 -1:255 32 0] 
r 0.820031598 _24_ RTR  --- 14 message 32 [0 ffffffff 17 800] ------- [23:255 -1:255 32 0] 
r 0.820031664 _29_ RTR  --- 14 message 32 [0 ffffffff 17 800] ------- [23:255 -1:255 32 0] 
r 0.820031698 _10_ RTR  --- 14 message 32 [0 ffffffff 17 800] ------- [23:255 -1:255 32 0] 
r 0.820031755 _9_ RTR  --- 14 message 32 [0 ffffffff 17 800] ------- [23:255 -1:255 32 0] 
r 0.820031773 _3_ RTR  --- 14 message 32 [0 ffffffff 17 800] ------- [23:255 -1:255 32 0] 
r 0.820031884 _15_ RTR  --- 14 message 32 [0 ffffffff 17 800] ------- [23:255 -1:255 32 0] 
r 0.820031982 _28_ RTR  --- 14 message 32 [0 ffffffff 17 800] ------- [23:255 -1:255 32 0] 
r 0.820031987 _12_ RTR  --- 14 message 32 [0 ffffffff 17 800] ------- [23:255 -1:255 32 0] 
s 0.847315218 _17_ RTR  --- 15 message 32 [0 0 0 0] ------- [17:255 -1:255 32 0] 
r 0.848315366 _0_ RTR  --- 15 message 32 [0 ffffffff 11 800] ------- [17:255 -1:255 32 0] 
r 0.848315381 _20_ RTR  --- 15 message 32 [0 ffffffff 11 800] ------- [17:255 -1:255 32 0] 
r 0.848315626 _2_ RTR  --- 15 message 32 [0 ffffffff 11 800] ------- [17:255 -1:255 32 0] 
r 0.848315634 _22_ RTR  --- 15 message 32 [0 ffffffff 11 800] ------- [17:255 -1:255 32 0] 
r 0.848315646 _8_ RTR  --- 15 message 32 [0 ffffffff 11 800] ------- [17:255 -1:255 32 0] 
r 0.848315651 _16_ RTR  --- 15 message 32 [0 ffffffff 11 800] ------- [17:255 -1:255 32 0] 
r 0.848315692 _25_ RTR  --- 15 message 32 [0 ffffffff 11 800] ------- [17:255 -1:255 32 0] 
r 0.848315735 _18_ RTR  --- 15 message 32 [0 ffffffff 11 800] ------- [17:255 -1:255 32 0] 
r 0.848315779 _11_ RTR  --- 15 message 32 [0 ffffffff 11 800] ------- [17:255 -1:255 32 0] 
s 0.891466156 _4_ RTR  --- 16 message 32 [0 0 0 0] ------- [4:255 -1:255 32 0] 
r 0.892406306 _28_ RTR  --- 16 message 32 [0 ffffffff 4 800] ------- [4:255 -1:255 32 0] 
r 0.892406335 _19_ RTR  --- 16 message 32 [0 ffffffff 4 800] ------- [4:255 -1:255 32 0] 
r 0.892406368 _7_ RTR  --- 16 message 32 [0 ffffffff 4 800] ------- [4:255 -1:255 32 0] 
r 0.892406414 _27_ RTR  --- 16 message 32 [0 ffffffff 4 800] ------- [4:255 -1:255 32 0] 
r 0.892406463 _15_ RTR  --- 16 message 32 [0 ffffffff 4 800] ------- [4:255 -1:255 32 0] 
r 0.892406483 _3_ RTR  --- 16 message 32 [0 ffffffff 4 800] ------- [4:255 -1:255 32 0] 
r 0.892406567 _14_ RTR  --- 16 message 32 [0 ffffffff 4 800] ------- [4:255 -1:255 32 0] 
r 0.892406584 _10_ RTR  --- 16 message 32 [0 ffffffff 4 800] ------- [4:255 -1:255 32 0] 
r 0.892406656 _21_ RTR  --- 16 message 32 [0 ffffffff 4 800] ------- [4:255 -1:255 32 0] 
r 0.892406723 _29_ RTR  --- 16 message 32 [0 ffffffff 4 800] ------- [4:255 -1:255 32 0] 
r 0.892406739 _9_ RTR  --- 16 message 32 [0 ffffffff 4 800] ------- [4:255 -1:255 32 0] 
r 0.892406783 _5_ RTR  --- 16 message 32 [0 ffffffff 4 800] ------- [4:255 -1:255 32 0] 
r 0.892406835 _26_ RTR  --- 16 message 32 [0 ffffffff 4 800] ------- [4:255 -1:255 32 0] 
r 0.892406842 _1_ RTR  --- 16 message 32 [0 ffffffff 4 800] ------- [4:255 -1:255 32 0] 
r 0.892406857 _24_ RTR  --- 16 message 32 [0 ffffffff 4 800] ------- [4:255 -1:255 32 0] 
r 0.892406868 _13_ RTR  --- 16 message 32 [0 ffffffff 4 800] ------- [4:255 -1:255 32 0] 
r 0.892406885 _12_ RTR  --- 16 message 32 [0 ffffffff 4 800] ------- [4:255 -1:255 32 0] 
s 0.932265375 _25_ RTR  --- 17 message 32 [0 0 0 0] ------- [25:255 -1:255 32 0] 
r 0.933225492 _16_ RTR  --- 17 message 32 [0 ffffffff 19 800] ------- [25:255 -1:255 32 0] 
r 0.933225624 _11_ RTR  --- 17 message 32 [0 ffffffff 19 800] ------- [25:255 -1:255 32 0] 
r 0.933225849 _17_ RTR  --- 17 message 32 [0 ffffffff 19 800] ------- [25:255 -1:255 32 0] 
r 0.933225890 _8_ RTR  --- 17 message 32 [0 ffffffff 19 800] ------- [25:255 -1:255 32 0] 
r 0.933225970 _18_ RTR  --- 17 message 32 [0 ffffffff 19 800] ------- [25:255 -1:255 32 0] 
r 0.933225989 _0_ RTR  --- 17 message 32 [0 ffffffff 19 800] ------- [25:255 -1:255 32 0] 
r 0.933226000 _20_ RTR  --- 17 message 32 [0 ffffffff 19 800] ------- [25:255 -1:255 32 0] 
r 0.933226053 _22_ RTR  --- 17 message 32 [0 ffffffff 19 800] ------- [25:255 -1:255 32 0] 
r 0.933226070 _13_ RTR  --- 17 message 32 [0 ffffffff 19 800] ------- [25:255 -1:255 32 0] 
r 0.933226081 _2_ RTR  --- 17 message 32 [0 ffffffff 19 800] ------- [25:255 -1:255 32 0] 
r 0.933226191 _26_ RTR  --- 17 message 32 [0 ffffffff 19 800] ------- [25:255 -1:255 32 0] 
s 0.971514111 _0_ RTR  --- 18 message 32 [0 0 0 0] ------- [0:255 -1:255 32 0] 
r 0.972834130 _20_ RTR  --- 18 message 32 [0 ffffffff 0 800] ------- [0:255 -1:255 32 0] 
r 0.972834258 _17_ RTR  --- 18 message 32 [0 ffffffff 0 800] ------- [0:255 -1:255 32 0] 
r 0.972834558 _2_ RTR  --- 18 message 32 [0 ffffffff 0 800] ------- [0:255 -1:255 32 0] 
r 0.972834560 _8_ RTR  --- 18 message 32 [0 ffffffff 0 800] ------- [0:255 -1:255 32 0] 
r 0.972834583 _22_ RTR  --- 18 message 32 [0 ffffffff 0 800] ------- [0:255 -1:255 32 0] 
r 0.972834690 _16_ RTR  --- 18 message 32 [0 ffffffff 0 800] ------- [0:255 -1:255 32 0] 
r 0.972834724 _25_ RTR  --- 18 message 32 [0 ffffffff 0 800] ------- [0:255 -1:255 32 0] 
r 0.972834730 _18_ RTR  --- 18 message 32 [0 ffffffff 0 800] ------- [0:255 -1:255 32 0] 
r 0.972834779 _11_ RTR  --- 18 message 32 [0 ffffffff 0 800] ------- [0:255 -1:255 32 0] 
M 1.00000 1 (401.65, 10.00, 0.00), (401.65, 10.00), 29.25
s 1.043451156 _24_ RTR  --- 19 message 32 [0 0 0 0] ------- [24:255 -1:255 32 0] 
r 1.044531334 _9_ RTR  --- 19 message 32 [0 ffffffff 18 800] ------- [24:255 -1:255 32 0] 
r 1.044531517 _23_ RTR  --- 19 message 32 [0 ffffffff 18 800] ------- [24:255 -1:255 32 0] 
r 1.044531545 _12_ RTR  --- 19 message 32 [0 ffffffff 18 800] ------- [24:255 -1:255 32 0] 
r 1.044531562 _3_ RTR  --- 19 message 32 [0 ffffffff 18 800] ------- [24:255 -1:255 32 0] 
r 1.044531566 _15_ RTR  --- 19 message 32 [0 ffffffff 18 800] ------- [24:255 -1:255 32 0] 
r 1.044531613 _10_ RTR  --- 19 message 32 [0 ffffffff 18 800] ------- [24:255 -1:255 32 0] 
r 1.044531702 _29_ RTR  --- 19 message 32 [0 ffffffff 18 800] ------- [24:255 -1:255 32 0] 
r 1.044531712 _28_ RTR  --- 19 message 32 [0 ffffffff 18 800] ------- [24:255 -1:255 32 0] 
r 1.044531762 _6_ RTR  --- 19 message 32 [0 ffffffff 18 800] ------- [24:255 -1:255 32 0] 
r 1.044531857 _4_ RTR  --- 19 message 32 [0 ffffffff 18 800] ------- [24:255 -1:255 32 0] 
r 1.044531978 _7_ RTR  --- 19 message 32 [0 ffffffff 18 800] ------- [24:255 -1:255 32 0] 
r 1.044531982 _27_ RTR  --- 19 message 32 [0 ffffffff 18 800] ------- [24:255 -1:255 32 0] 
s 1.113837583 _1_ RTR  --- 20 message 32 [0 0 0 0] ------- [1:255 -1:255 32 0] 
r 1.115177653 _26_ RTR  --- 20 message 32 [0 ffffffff 1 800] ------- [1:255 -1:255 32 0] 
r 1.115177942 _13_ RTR  --- 20 message 32 [0 ffffffff 1 800] ------- [1:255 -1:255 32 0] 
r 1.115178145 _19_ RTR  --- 20 message 32 [0 ffffffff 1 800] ------- [1:255 -1:255 32 0] 
r 1.115178270 _4_ RTR  --- 20 message 32 [0 ffffffff 1 800] ------- [1:255 -1:255 32 0] 
r 1.115178308 _28_ RTR  --- 20 message 32 [0 ffffffff 1 800] ------- [1:255 -1:255 32 0] 
r 1.115178359 _18_ RTR  --- 20 message 32 [0 ffffffff 1 800] ------- [1:255 -1:255 32 0] 
r 1.115178369 _15_ RTR  --- 20 message 32 [0 ffffffff 1 800] ------- [1:255 -1:255 32 0] 
r 1.115178381 _16_ RTR  --- 20 message 32 [0 ffffffff 1 800] ------- [1:255 -1:255 32 0] 
s 1.281042407 _9_ RTR  --- 21 message 32 [0 0 0 0] ------- [9:255 -1:255 32 0] 
r 1.282122585 _24_ RTR  --- 21 message 32 [0 ffffffff 9 800] ------- [9:255 -1:255 32 0] 
r 1.282122672 _12_ RTR  --- 21 message 32 [0 ffffffff 9 800] ------- [9:255 -1:255 32 0] 
r 1.282122683 _15_ RTR  --- 21 message 32 [0 ffffffff 9 800] ------- [9:255 -1:255 32 0] 
r 1.282122752 _3_ RTR  --- 21 message 32 [0 ffffffff 9 800] ------- [9:255 -1:255 32 0] 
r 1.282122840 _28_ RTR  --- 21 message 32 [0 ffffffff 9 800] ------- [9:255 -1:255 32 0] 
r 1.282122864 _10_ RTR  --- 21 message 32 [0 ffffffff 9 800] ------- [9:255 -1:255 32 0] 
r 1.282122882 _6_ RTR  --- 21 message 32 [0 ffffffff 9 800] ------- [9:255 -1:255 32 0] 
r 1.282122925 _23_ RTR  --- 21 message 32 [0 ffffffff 9 800] ------- [9:255 -1:255 32 0] 
r 1.282122990 _4_ RTR  --- 21 message 32 [0 ffffffff 9 800] ------- [9:255 -1:255 32 0] 
r 1.282122995 _29_ RTR  --- 21 message 32 [0 ffffffff 9 800] ------- [9:255 -1:255 32 0] 
r 1.282123135 _19_ RTR  --- 21 message 32 [0 ffffffff 9 800] ------- [9:255 -1:255 32 0] 
r 1.282123144 _7_ RTR  --- 21 message 32 [0 ffffffff 9 800] ------- [9:255 -1:255 32 0] 
r 1.282123152 _13_ RTR  --- 21 message 32 [0 ffffffff 9 800] ------- [9:255 -1:255 32 0] 
r 1.282123158 _27_ RTR  --- 21 message 32 [0 ffffffff 9 800] ------- [9:255 -1:255 32 0] 
r 1.282123223 _14_ RTR  --- 21 message 32 [0 ffffffff 9 800] ------- [9:255 -1:255 32 0] 
s 1.289129465 _14_ RTR  --- 22 message 32 [0 0 0 0] ------- [14:255 -1:255 32 0] 
r 1.289969559 _21_ RTR  --- 22 message 32 [0 ffffffff e 800] ------- [14:255 -1:255 32 0] 
r 1.289969633 _27_ RTR  --- 22 message 32 [0 ffffffff e 800] ------- [14:255 -1:255 32 0] 
r 1.289969689 _5_ RTR  --- 22 message 32 [0 ffffffff e 800] ------- [14:255 -1:255 32 0] 
r 1.289969690 _7_ RTR  --- 22 message 32 [0 ffffffff e 800] ------- [14:255 -1:255 32 0] 
r 1.289969874 _10_ RTR  --- 22 message 32 [0 ffffffff e 800] ------- [14:255 -1:255 32 0] 
r 1.289969875 _4_ RTR  --- 22 message 32 [0 ffffffff e 800] ------- [14:255 -1:255 32 0] 
r 1.289969885 _29_ RTR  --- 22 message 32 [0 ffffffff e 800] ------- [14:255 -1:255 32 0] 
r 1.289969936 _3_ RTR  --- 22 message 32 [0 ffffffff e 800] ------- [14:255 -1:255 32 0] 
r 1.289969946 _28_ RTR  --- 22 message 32 [0 ffffffff e 800] ------- [14:255 -1:255 32 0] 
r 1.289969968 _19_ RTR  --- 22 message 32 [0 ffffffff e 800] ------- [14:255 -1:255 32 0] 
r 1.289970061 _15_ RTR  --- 22 message 32 [0 ffffffff e 800] ------- [14:255 -1:255 32 0] 
r 1.289970281 _9_ RTR  --- 22 message 32 [0 ffffffff e 800] ------- [14:255 -1:255 32 0] 
s 1.389461406 _26_ RTR  --- 23 message 32 [0 0 0 0] ------- [26:255 -1:255 32 0] 
r 1.390761476 _1_ RTR  --- 23 message 32 [0 ffffffff 1a 800] ------- [26:255 -1:255 32 0] 
r 1.390761694 _13_ RTR  --- 23 message 32 [0 ffffffff 1a 800] ------- [26:255 -1:255 32 0] 
r 1.390761976 _19_ RTR  --- 23 message 32 [0 ffffffff 1a 800] ------- [26:255 -1:255 32 0] 
r 1.390762085 _4_ RTR  --- 23 message 32 [0 ffffffff 1a 800] ------- [26:255 -1:255 32 0] 
r 1.390762109 _28_ RTR  --- 23 message 32 [0 ffffffff 1a 800] ------- [26:255 -1:255 32 0] 
r 1.390762157 _15_ RTR  --- 23 message 32 [0 ffffffff 1a 800] ------- [26:255 -1:255 32 0] 
r 1.390762168 _16_ RTR  --- 23 message 32 [0 ffffffff 1a 800] ------- [26:255 -1:255 32 0] 
r 1.390762172 _6_ RTR  --- 23 message 32 [0 ffffffff 1a 800] ------- [26:255 -1:255 32 0] 
r 1.390762187 _18_ RTR  --- 23 message 32 [0 ffffffff 1a 800] ------- [26:255 -1:255 32 0] 
r 1.390762221 _25_ RTR  --- 23 message 32 [0 ffffffff 1a 800] ------- [26:255 -1:255 32 0] 
s 1.599896044 _5_ RTR  --- 24 message 32 [0 0 0 0] ------- [5:255 -1:255 32 0] 
r 1.600896175 _21_ RTR  --- 24 message 32 [0 ffffffff 5 800] ------- [5:255 -1:255 32 0] 
r 1.600896269 _14_ RTR  --- 24 message 32 [0 ffffffff 5 800] ------- [5:255 -1:255 32 0] 
r 1.600896437 _27_ RTR  --- 24 message 32 [0 ffffffff 5 800] ------- [5:255 -1:255 32 0] 
r 1.600896465 _29_ RTR  --- 24 message 32 [0 ffffffff 5 800] ------- [5:255 -1:255 32 0] 
r 1.600896494 _7_ RTR  --- 24 message 32 [0 ffffffff 5 800] ------- [5:255 -1:255 32 0] 
r 1.600896537 _10_ RTR  --- 24 message 32 [0 ffffffff 5 800] ------- [5:255 -1:255 32 0] 
r 1.600896653 _3_ RTR  --- 24 message 32 [0 ffffffff 5 800] ------- [5:255 -1:255 32 0] 
r 1.600896671 _4_ RTR  --- 24 message 32 [0 ffffffff 5 800] ------- [5:255 -1:255 32 0] 
r 1.600896719 _28_ RTR  --- 24 message 32 [0 ffffffff 5 800] ------- [5:255 -1:255 32 0] 
r 1.600896772 _19_ RTR  --- 24 message 32 [0 ffffffff 5 800] ------- [5:255 -1:255 32 0] 
r 1.600896809 _15_ RTR  --- 24 message 32 [0 ffffffff 5 800] ------- [5:255 -1:255 32 0] 
s 1.622770555 _20_ RTR  --- 25 message 32 [0 0 0 0] ------- [20:255 -1:255 32 0] 
r 1.623690574 _0_ RTR  --- 25 message 32 [0 ffffffff 14 800] ------- [20:255 -1:255 32 0] 
r 1.623690719 _17_ RTR  --- 25 message 32 [0 ffffffff 14 800] ------- [20:255 -1:255 32 0] 
r 1.623690999 _8_ RTR  --- 25 message 32 [0 ffffffff 14 800] ------- [20:255 -1:255 32 0] 
r 1.623691019 _2_ RTR  --- 25 message 32 [0 ffffffff 14 800] ------- [20:255 -1:255 32 0] 
r 1.623691045 _22_ RTR  --- 25 message 32 [0 ffffffff 14 800] ------- [20:255 -1:255 32 0] 
r 1.623691149 _16_ RTR  --- 25 message 32 [0 ffffffff 14 800] ------- [20:255 -1:255 32 0] 
r 1.623691180 _25_ RTR  --- 25 message 32 [0 ffffffff 14 800] ------- [20:255 -1:255 32 0] 
r 1.623691193 _18_ RTR  --- 25 message 32 [0 ffffffff 14 800] ------- [20:255 -1:255 32 0] 
r 1.623691229 _11_ RTR  --- 25 message 32 [0 ffffffff 14 800] ------- [20:255 -1:255 32 0] 
s 1.635220410 _7_ RTR  --- 26 message 32 [0 0 0 0] ------- [7:255 -1:255 32 0] 
r 1.636620467 _27_ RTR  --- 26 message 32 [0 ffffffff 7 800] ------- [7:255 -1:255 32 0] 
r 1.636620621 _4_ RTR  --- 26 message 32 [0 ffffffff 7 800] ------- [7:255 -1:255 32 0] 
r 1.636620635 _14_ RTR  --- 26 message 32 [0 ffffffff 7 800] ------- [7:255 -1:255 32 0] 
r 1.636620688 _19_ RTR  --- 26 message 32 [0 ffffffff 7 800] ------- [7:255 -1:255 32 0] 
r 1.636620729 _21_ RTR  --- 26 message 32 [0 ffffffff 7 800] ------- [7:255 -1:255 32 0] 
r 1.636620738 _28_ RTR  --- 26 message 32 [0 ffffffff 7 800] ------- [7:255 -1:255 32 0] 
r 1.636620827 _3_ RTR  --- 26 message 32 [0 ffffffff 7 800] ------- [7:255 -1:255 32 0] 
r 1.636620850 _10_ RTR  --- 26 message 32 [0 ffffffff 7 800] ------- [7:255 -1:255 32 0] 
r 1.636620860 _5_ RTR  --- 26 message 32 [0 ffffffff 7 800] ------- [7:255 -1:255 32 0] 
r 1.636620886 _15_ RTR  --- 26 message 32 [0 ffffffff 7 800] ------- [7:255 -1:255 32 0] 
r 1.636620937 _29_ RTR  --- 26 message 32 [0 ffffffff 7 800] ------- [7:255 -1:255 32 0] 
r 1.636621147 _9_ RTR  --- 26 message 32 [0 ffffffff 7 800] ------- [7:255 -1:255 32 0] 
r 1.636621232 _24_ RTR  --- 26 message 32 [0 ffffffff 7 800] ------- [7:255 -1:255 32 0] 
s 1.680587454 _11_ RTR  --- 27 message 32 [0 0 0 0] ------- [11:255 -1:255 32 0] 
r 1.681927702 _25_ RTR  --- 27 message 32 [0 ffffffff b 800] ------- [11:255 -1:255 32 0] 