M 0.0 nn 30 x 1700 y 1700 rp DSDV
M 0.0 sc dsdv-update.tcl cp trafic seed 1.0
M 0.0 prop Propagation/TwoRayGround ant Antenna/OmniAntenna
M 0.00000 0 (234.12, 1049.24, 0.00), (234.12, 1049.24), 0.00
M 0.00000 1 (834.46, 297.48, 0.00), (834.46, 297.48), 0.00
M 0.00000 2 (710.17, 1171.48, 0.00), (710.17, 1171.48), 0.00
M 0.00000 3 (185.17, 1373.31, 0.00), (185.17, 1373.31), 0.00
M 0.00000 4 (779.43, 450.34, 0.00), (779.43, 450.34), 0.00
M 0.00000 5 (1297.09, 1059.42, 0.00), (1297.09, 1059.42), 0.00
M 0.00000 6 (537.39, 446.77, 0.00), (537.39, 446.77), 0.00
M 0.00000 7 (487.10, 462.76, 0.00), (487.10, 462.76), 0.00
M 0.00000 8 (234.56, 339.88, 0.00), (234.56, 339.88), 0.00
M 0.00000 9 (580.75, 107.26, 0.00), (580.75, 107.26), 0.00
M 0.00000 10 (926.41, 1085.68, 0.00), (926.41, 1085.68), 0.00
M 0.00000 11 (363.23, 1164.99, 0.00), (363.23, 1164.99), 0.00
M 0.00000 12 (1181.26, 1004.47, 0.00), (1181.26, 1004.47), 0.00
M 0.00000 13 (253.36, 770.16, 0.00), (253.36, 770.16), 0.00
M 0.00000 14 (1108.02, 1104.49, 0.00), (1108.02, 1104.49), 0.00
M 0.00000 15 (974.25, 1397.78, 0.00), (974.25, 1397.78), 0.00
M 0.00000 16 (234.50, 387.01, 0.00), (234.50, 387.01), 0.00
M 0.00000 17 (342.28, 855.43, 0.00), (342.28, 855.43), 0.00
M 0.00000 18 (1075.29, 275.12, 0.00), (1075.29, 275.12), 0.00
M 0.00000 19 (204.91, 1138.06, 0.00), (204.91, 1138.06), 0.00
M 0.00000 20 (376.53, 410.39, 0.00), (376.53, 410.39), 0.00
M 0.00000 21 (888.83, 514.54, 0.00), (888.83, 514.54), 0.00
M 0.00000 22 (534.92, 451.91, 0.00), (534.92, 451.91), 0.00
M 0.00000 0 (234.12, 1049.24, 0.00), (234.12, 1049.24), 47.22
s 0.003091411 _0_ RTR  --- 0 message 32 [0 0 0 0] ------- [0:255 -1:255 32 0] 
s 0.003466411 _0_ MAC  --- 0 message 90 [0 ffffffff 0 800] ------- [0:255 -1:255 32 0] 
r 0.004186722 _19_ MAC  --- 0 message 32 [0 ffffffff 0 800] ------- [0:255 -1:255 32 0] 
r 0.004186989 _11_ MAC  --- 0 message 32 [0 ffffffff 0 800] ------- [0:255 -1:255 32 0] 
r 0.004187151 _17_ MAC  --- 0 message 32 [0 ffffffff 0 800] ------- [0:255 -1:255 32 0] 
r 0.004187208 _28_ MAC  --- 0 message 32 [0 ffffffff 0 800] ------- [0:255 -1:255 32 0] 
r 0.004187343 _13_ MAC  --- 0 message 32 [0 ffffffff 0 800] ------- [0:255 -1:255 32 0] 
r 0.004187503 _3_ MAC  --- 0 message 32 [0 ffffffff 0 800] ------- [0:255 -1:255 32 0] 
r 0.004211722 _19_ RTR  --- 0 message 32 [0 ffffffff 0 800] ------- [0:255 -1:255 32 0] 
r 0.004211989 _11_ RTR  --- 0 message 32 [0 ffffffff 0 800] ------- [0:255 -1:255 32 0] 
r 0.004212151 _17_ RTR  --- 0 message 32 [0 ffffffff 0 800] ------- [0:255 -1:255 32 0] 
r 0.004212208 _28_ RTR  --- 0 message 32 [0 ffffffff 0 800] ------- [0:255 -1:255 32 0] 
r 0.004212343 _13_ RTR  --- 0 message 32 [0 ffffffff 0 800] ------- [0:255 -1:255 32 0] 
r 0.004212503 _3_ RTR  --- 0 message 32 [0 ffffffff 0 800] ------- [0:255 -1:255 32 0] 
s 0.037458776 _2_ RTR  --- 1 message 32 [0 0 0 0] ------- [2:255 -1:255 32 0] 
s 0.037813776 _2_ MAC  --- 1 message 90 [0 ffffffff 2 800] ------- [2:255 -1:255 32 0] 
r 0.038534551 _10_ MAC  --- 1 message 32 [0 ffffffff 2 800] ------- [2:255 -1:255 32 0] 
r 0.038534933 _11_ MAC  --- 1 message 32 [0 ffffffff 2 800] ------- [2:255 -1:255 32 0] 
r 0.038534935 _15_ MAC  --- 1 message 32 [0 ffffffff 2 800] ------- [2:255 -1:255 32 0] 
r 0.038559551 _10_ RTR  --- 1 message 32 [0 ffffffff 2 800] ------- [2:255 -1:255 32 0] 
r 0.038559933 _11_ RTR  --- 1 message 32 [0 ffffffff 2 800] ------- [2:255 -1:255 32 0] 
r 0.038559935 _15_ RTR  --- 1 message 32 [0 ffffffff 2 800] ------- [2:255 -1:255 32 0] 
s 0.087462768 _13_ RTR  --- 2 message 32 [0 0 0 0] ------- [13:255 -1:255 32 0] 
s 0.087757768 _13_ MAC  --- 2 message 90 [0 ffffffff d 800] ------- [13:255 -1:255 32 0] 
r 0.088478179 _17_ MAC  --- 2 message 32 [0 ffffffff d 800] ------- [13:255 -1:255 32 0] 
r 0.088478700 _0_ MAC  --- 2 message 32 [0 ffffffff d 800] ------- [13:255 -1:255 32 0] 
r 0.088478908 _28_ MAC  --- 2 message 32 [0 ffffffff d 800] ------- [13:255 -1:255 32 0] 
r 0.088479005 _19_ MAC  --- 2 message 32 [0 ffffffff d 800] ------- [13:255 -1:255 32 0] 
r 0.088479035 _20_ MAC  --- 2 message 32 [0 ffffffff d 800] ------- [13:255 -1:255 32 0] 
r 0.088479047 _16_ MAC  --- 2 message 32 [0 ffffffff d 800] ------- [13:255 -1:255 32 0] 
r 0.088479055 _7_ MAC  --- 2 message 32 [0 ffffffff d 800] ------- [13:255 -1:255 32 0] 
r 0.088503179 _17_ RTR  --- 2 message 32 [0 ffffffff d 800] ------- [13:255 -1:255 32 0] 
r 0.088503700 _0_ RTR  --- 2 message 32 [0 ffffffff d 800] ------- [13:255 -1:255 32 0] 
r 0.088503908 _28_ RTR  --- 2 message 32 [0 ffffffff d 800] ------- [13:255 -1:255 32 0] 
r 0.088504005 _19_ RTR  --- 2 message 32 [0 ffffffff d 800] ------- [13:255 -1:255 32 0] 
r 0.088504035 _20_ RTR  --- 2 message 32 [0 ffffffff d 800] ------- [13:255 -1:255 32 0] 
r 0.088504047 _16_ RTR  --- 2 message 32 [0 ffffffff d 800] ------- [13:255 -1:255 32 0] 
r 0.088504055 _7_ RTR  --- 2 message 32 [0 ffffffff d 800] ------- [13:255 -1:255 32 0] 
s 0.177365656 _3_ RTR  --- 3 message 32 [0 0 0 0] ------- [3:255 -1:255 32 0] 
s 0.177560656 _3_ MAC  --- 3 message 90 [0 ffffffff 3 800] ------- [3:255 -1:255 32 0] 
r 0.178281443 _19_ MAC  --- 3 message 32 [0 ffffffff 3 800] ------- [3:255 -1:255 32 0] 
r 0.178281569 _11_ MAC  --- 3 message 32 [0 ffffffff 3 800] ------- [3:255 -1:255 32 0] 
r 0.178281748 _0_ MAC  --- 3 message 32 [0 ffffffff 3 800] ------- [3:255 -1:255 32 0] 
r 0.178306443 _19_ RTR  --- 3 message 32 [0 ffffffff 3 800] ------- [3:255 -1:255 32 0] 
r 0.178306569 _11_ RTR  --- 3 message 32 [0 ffffffff 3 800] ------- [3:255 -1:255 32 0] 
r 0.178306748 _0_ RTR  --- 3 message 32 [0 ffffffff 3 800] ------- [3:255 -1:255 32 0] 
s 0.191634337 _19_ RTR  --- 4 message 32 [0 0 0 0] ------- [19:255 -1:255 32 0] 
s 0.191889337 _19_ MAC  --- 4 message 90 [0 ffffffff 13 800] ------- [19:255 -1:255 32 0] 
r 0.192609648 _0_ MAC  --- 4 message 32 [0 ffffffff 13 800] ------- [19:255 -1:255 32 0] 
r 0.192609872 _11_ MAC  --- 4 message 32 [0 ffffffff 13 800] ------- [19:255 -1:255 32 0] 
r 0.192610124 _3_ MAC  --- 4 message 32 [0 ffffffff 13 800] ------- [19:255 -1:255 32 0] 
r 0.192610160 _28_ MAC  --- 4 message 32 [0 ffffffff 13 800] ------- [19:255 -1:255 32 0] 
r 0.192610384 _17_ MAC  --- 4 message 32 [0 ffffffff 13 800] ------- [19:255 -1:255 32 0] 
r 0.192610574 _13_ MAC  --- 4 message 32 [0 ffffffff 13 800] ------- [19:255 -1:255 32 0] 
r 0.192634648 _0_ RTR  --- 4 message 32 [0 ffffffff 13 800] ------- [19:255 -1:255 32 0] 
r 0.192634872 _11_ RTR  --- 4 message 32 [0 ffffffff 13 800] ------- [19:255 -1:255 32 0] 
r 0.192635124 _3_ RTR  --- 4 message 32 [0 ffffffff 13 800] ------- [19:255 -1:255 32 0] 
r 0.192635160 _28_ RTR  --- 4 message 32 [0 ffffffff 13 800] ------- [19:255 -1:255 32 0] 
r 0.192635384 _17_ RTR  --- 4 message 32 [0 ffffffff 13 800] ------- [19:255 -1:255 32 0] 
r 0.192635574 _13_ RTR  --- 4 message 32 [0 ffffffff 13 800] ------- [19:255 -1:255 32 0] 
s 0.234603229 _15_ RTR  --- 5 message 32 [0 0 0 0] ------- [15:255 -1:255 32 0] 
s 0.234898229 _15_ MAC  --- 5 message 90 [0 ffffffff f 800] ------- [15:255 -1:255 32 0] 
r 0.235619282 _10_ MAC  --- 5 message 32 [0 ffffffff f 800] ------- [15:255 -1:255 32 0] 
r 0.235619304 _14_ MAC  --- 5 message 32 [0 ffffffff f 800] ------- [15:255 -1:255 32 0] 
r 0.235619389 _2_ MAC  --- 5 message 32 [0 ffffffff f 800] ------- [15:255 -1:255 32 0] 
r 0.235644282 _10_ RTR  --- 5 message 32 [0 ffffffff f 800] ------- [15:255 -1:255 32 0] 
r 0.235644304 _14_ RTR  --- 5 message 32 [0 ffffffff f 800] ------- [15:255 -1:255 32 0] 
r 0.235644389 _2_ RTR  --- 5 message 32 [0 ffffffff f 800] ------- [15:255 -1:255 32 0] 
s 0.333839210 _12_ RTR  --- 6 message 32 [0 0 0 0] ------- [12:255 -1:255 32 0] 
s 0.333994210 _12_ MAC  --- 6 message 90 [0 ffffffff c 800] ------- [12:255 -1:255 32 0] 
r 0.334714623 _14_ MAC  --- 6 message 32 [0 ffffffff c 800] ------- [12:255 -1:255 32 0] 
r 0.334714637 _5_ MAC  --- 6 message 32 [0 ffffffff c 800] ------- [12:255 -1:255 32 0] 
r 0.334715102 _10_ MAC  --- 6 message 32 [0 ffffffff c 800] ------- [12:255 -1:255 32 0] 
r 0.334739623 _14_ RTR  --- 6 message 32 [0 ffffffff c 800] ------- [12:255 -1:255 32 0] 
r 0.334739637 _5_ RTR  --- 6 message 32 [0 ffffffff c 800] ------- [12:255 -1:255 32 0] 
r 0.334740102 _10_ RTR  --- 6 message 32 [0 ffffffff c 800] ------- [12:255 -1:255 32 0] 
s 0.351472650 _18_ RTR  --- 7 message 32 [0 0 0 0] ------- [18:255 -1:255 32 0] 
s 0.351847650 _18_ MAC  --- 7 message 90 [0 ffffffff 12 800] ------- [18:255 -1:255 32 0] 
r 0.352568456 _1_ MAC  --- 7 message 32 [0 ffffffff 12 800] ------- [18:255 -1:255 32 0] 
r 0.352568601 _29_ MAC  --- 7 message 32 [0 ffffffff 12 800] ------- [18:255 -1:255 32 0] 
r 0.352568662 _21_ MAC  --- 7 message 32 [0 ffffffff 12 800] ------- [18:255 -1:255 32 0] 
r 0.352568796 _4_ MAC  --- 7 message 32 [0 ffffffff 12 800] ------- [18:255 -1:255 32 0] 
r 0.352593456 _1_ RTR  --- 7 message 32 [0 ffffffff 12 800] ------- [18:255 -1:255 32 0] 
r 0.352593601 _29_ RTR  --- 7 message 32 [0 ffffffff 12 800] ------- [18:255 -1:255 32 0] 
r 0.352593662 _21_ RTR  --- 7 message 32 [0 ffffffff 12 800] ------- [18:255 -1:255 32 0] 
r 0.352593796 _4_ RTR  --- 7 message 32 [0 ffffffff 12 800] ------- [18:255 -1:255 32 0] 
s 0.436386259 _29_ RTR  --- 8 message 32 [0 0 0 0] ------- [29:255 -1:255 32 0] 
s 0.436701259 _29_ MAC  --- 8 message 90 [0 ffffffff 1d 800] ------- [29:255 -1:255 32 0] 
r 0.437422210 _18_ MAC  --- 8 message 32 [0 ffffffff 1d 800] ------- [29:255 -1:255 32 0] 
r 0.437422394 _1_ MAC  --- 8 message 32 [0 ffffffff 1d 800] ------- [29:255 -1:255 32 0] 
r 0.437447210 _18_ RTR  --- 8 message 32 [0 ffffffff 1d 800] ------- [29:255 -1:255 32 0] 
r 0.437447394 _1_ RTR  --- 8 message 32 [0 ffffffff 1d 800] ------- [29:255 -1:255 32 0] 
s 0.470117073 _8_ RTR  --- 9 message 32 [0 0 0 0] ------- [8:255 -1:255 32 0] 
s 0.470652073 _8_ MAC  --- 9 message 90 [0 ffffffff 8 800] ------- [8:255 -1:255 32 0] 
r 0.471372230 _16_ MAC  --- 9 message 32 [0 ffffffff 8 800] ------- [8:255 -1:255 32 0] 
r 0.471372601 _20_ MAC  --- 9 message 32 [0 ffffffff 8 800] ------- [8:255 -1:255 32 0] 
r 0.471373009 _7_ MAC  --- 9 message 32 [0 ffffffff 8 800] ------- [8:255 -1:255 32 0] 
r 0.471373141 _22_ MAC  --- 9 message 32 [0 ffffffff 8 800] ------- [8:255 -1:255 32 0] 
r 0.471373143 _6_ MAC  --- 9 message 32 [0 ffffffff 8 800] ------- [8:255 -1:255 32 0] 
r 0.471397230 _16_ RTR  --- 9 message 32 [0 ffffffff 8 800] ------- [8:255 -1:255 32 0] 
r 0.471397601 _20_ RTR  --- 9 message 32 [0 ffffffff 8 800] ------- [8:255 -1:255 32 0] 
r 0.471398009 _7_ RTR  --- 9 message 32 [0 ffffffff 8 800] ------- [8:255 -1:255 32 0] 
r 0.471398141 _22_ RTR  --- 9 message 32 [0 ffffffff 8 800] ------- [8:255 -1:255 32 0] 
r 0.471398143 _6_ RTR  --- 9 message 32 [0 ffffffff 8 800] ------- [8:255 -1:255 32 0] 
s 0.521504883 _22_ RTR  --- 10 message 32 [0 0 0 0] ------- [22:255 -1:255 32 0] 
s 0.521659883 _22_ MAC  --- 10 message 90 [0 ffffffff 16 800] ------- [22:255 -1:255 32 0] 
r 0.522379902 _6_ MAC  --- 10 message 32 [0 ffffffff 16 800] ------- [22:255 -1:255 32 0] 
r 0.522380047 _7_ MAC  --- 10 message 32 [0 ffffffff 16 800] ------- [22:255 -1:255 32 0] 
r 0.522380429 _20_ MAC  --- 10 message 32 [0 ffffffff 16 800] ------- [22:255 -1:255 32 0] 
r 0.522380698 _4_ MAC  --- 10 message 32 [0 ffffffff 16 800] ------- [22:255 -1:255 32 0] 
r 0.522380908 _16_ MAC  --- 10 message 32 [0 ffffffff 16 800] ------- [22:255 -1:255 32 0] 
r 0.522380952 _8_ MAC  --- 10 message 32 [0 ffffffff 16 800] ------- [22:255 -1:255 32 0] 
r 0.522381007 _1_ MAC  --- 10 message 32 [0 ffffffff 16 800] ------- [22:255 -1:255 32 0] 
r 0.522381042 _9_ MAC  --- 10 message 32 [0 ffffffff 16 800] ------- [22:255 -1:255 32 0] 
r 0.522381081 _21_ MAC  --- 10 message 32 [0 ffffffff 16 800] ------- [22:255 -1:255 32 0] 
r 0.522404902 _6_ RTR  --- 10 message 32 [0 ffffffff 16 800] ------- [22:255 -1:255 32 0] 
r 0.522405047 _7_ RTR  --- 10 message 32 [0 ffffffff 16 800] ------- [22:255 -1:255 32 0] 
r 0.522405429 _20_ RTR  --- 10 message 32 [0 ffffffff 16 800] ------- [22:255 -1:255 32 0] 
r 0.522405698 _4_ RTR  --- 10 message 32 [0 ffffffff 16 800] ------- [22:255 -1:255 32 0] 
r 0.522405908 _16_ RTR  --- 10 message 32 [0 ffffffff 16 800] ------- [22:255 -1:255 32 0] 
r 0.522405952 _8_ RTR  --- 10 message 32 [0 ffffffff 16 800] ------- [22:255 -1:255 32 0] 
r 0.522406007 _1_ RTR  --- 10 message 32 [0 ffffffff 16 800] ------- [22:255 -1:255 32 0] 
r 0.522406042 _9_ RTR  --- 10 message 32 [0 ffffffff 16 800] ------- [22:255 -1:255 32 0] 
r 0.522406081 _21_ RTR  --- 10 message 32 [0 ffffffff 16 800] ------- [22:255 -1:255 32 0] 
s 0.556838879 _28_ AGT  --- 11 cbr 512 [0 0 0 0] ------- [28:0 29:0 32 0] [0] 0 0
r 0.556838879 _28_ RTR  --- 11 cbr 512 [0 0 0 0] ------- [28:0 29:0 32 0] [0] 0 0
s 0.627186592 _10_ RTR  --- 12 message 32 [0 0 0 0] ------- [10:255 -1:255 32 0] 
s 0.627321592 _10_ MAC  --- 12 message 90 [0 ffffffff a 800] ------- [10:255 -1:255 32 0] 
r 0.628042201 _14_ MAC  --- 12 message 32 [0 ffffffff a 800] ------- [10:255 -1:255 32 0] 
r 0.628042368 _2_ MAC  --- 12 message 32 [0 ffffffff a 800] ------- [10:255 -1:255 32 0] 
r 0.628042484 _12_ MAC  --- 12 message 32 [0 ffffffff a 800] ------- [10:255 -1:255 32 0] 
r 0.628042645 _15_ MAC  --- 12 message 32 [0 ffffffff a 800] ------- [10:255 -1:255 32 0] 
r 0.628042831 _5_ MAC  --- 12 message 32 [0 ffffffff a 800] ------- [10:255 -1:255 32 0] 
r 0.628067201 _14_ RTR  --- 12 message 32 [0 ffffffff a 800] ------- [10:255 -1:255 32 0] 
r 0.628067368 _2_ RTR  --- 12 message 32 [0 ffffffff a 800] ------- [10:255 -1:255 32 0] 
r 0.628067484 _12_ RTR  --- 12 message 32 [0 ffffffff a 800] ------- [10:255 -1:255 32 0] 
r 0.628067645 _15_ RTR  --- 12 message 32 [0 ffffffff a 800] ------- [10:255 -1:255 32 0] 
r 0.628067831 _5_ RTR  --- 12 message 32 [0 ffffffff a 800] ------- [10:255 -1:255 32 0] 
s 0.634670006 _6_ RTR  --- 13 message 32 [0 0 0 0] ------- [6:255 -1:255 32 0] 
s 0.634865006 _6_ MAC  --- 13 message 90 [0 ffffffff 6 800] ------- [6:255 -1:255 32 0] 
r 0.635585025 _22_ MAC  --- 13 message 32 [0 ffffffff 6 800] ------- [6:255 -1:255 32 0] 
r 0.635585182 _7_ MAC  --- 13 message 32 [0 ffffffff 6 800] ------- [6:255 -1:255 32 0] 
r 0.635585556 _20_ MAC  --- 13 message 32 [0 ffffffff 6 800] ------- [6:255 -1:255 32 0] 
r 0.635585813 _4_ MAC  --- 13 message 32 [0 ffffffff 6 800] ------- [6:255 -1:255 32 0] 
r 0.635586035 _16_ MAC  --- 13 message 32 [0 ffffffff 6 800] ------- [6:255 -1:255 32 0] 
r 0.635586077 _8_ MAC  --- 13 message 32 [0 ffffffff 6 800] ------- [6:255 -1:255 32 0] 
r 0.635586115 _1_ MAC  --- 13 message 32 [0 ffffffff 6 800] ------- [6:255 -1:255 32 0] 
r 0.635586147 _9_ MAC  --- 13 message 32 [0 ffffffff 6 800] ------- [6:255 -1:255 32 0] 
r 0.635586199 _21_ MAC  --- 13 message 32 [0 ffffffff 6 800] ------- [6:255 -1:255 32 0] 
r 0.635610025 _22_ RTR  --- 13 message 32 [0 ffffffff 6 800] ------- [6:255 -1:255 32 0] 
r 0.635610182 _7_ RTR  --- 13 message 32 [0 ffffffff 6 800] ------- [6:255 -1:255 32 0] 
r 0.635610556 _20_ RTR  --- 13 message 32 [0 ffffffff 6 800] ------- [6:255 -1:255 32 0] 
r 0.635610813 _4_ RTR  --- 13 message 32 [0 ffffffff 6 800] ------- [6:255 -1:255 32 0] 
r 0.635611035 _16_ RTR  --- 13 message 32 [0 ffffffff 6 800] ------- [6:255 -1:255 32 0] 
r 0.635611077 _8_ RTR  --- 13 message 32 [0 ffffffff 6 800] ------- [6:255 -1:255 32 0] 
r 0.635611115 _1_ RTR  --- 13 message 32 [0 ffffffff 6 800] ------- [6:255 -1:255 32 0] 
r 0.635611147 _9_ RTR  --- 13 message 32 [0 ffffffff 6 800] ------- [6:255 -1:255 32 0] 
r 0.635611199 _21_ RTR  --- 13 message 32 [0 ffffffff 6 800] ------- [6:255 -1:255 32 0] 
s 0.705637875 _21_ RTR  --- 14 message 32 [0 0 0 0] ------- [21:255 -1:255 32 0] 
s 0.706012875 _21_ MAC  --- 14 message 90 [0 ffffffff 15 800] ------- [21:255 -1:255 32 0] 
r 0.706733297 _4_ MAC  --- 14 message 32 [0 ffffffff 15 800] ------- [21:255 -1:255 32 0] 
r 0.706733620 _1_ MAC  --- 14 message 32 [0 ffffffff 15 800] ------- [21:255 -1:255 32 0] 
r 0.706733886 _18_ MAC  --- 14 message 32 [0 ffffffff 15 800] ------- [21:255 -1:255 32 0] 
r 0.706734068 _6_ MAC  --- 14 message 32 [0 ffffffff 15 800] ------- [21:255 -1:255 32 0] 
r 0.706734073 _22_ MAC  --- 14 message 32 [0 ffffffff 15 800] ------- [21:255 -1:255 32 0] 
r 0.706758297 _4_ RTR  --- 14 message 32 [0 ffffffff 15 800] ------- [21:255 -1:255 32 0] 
r 0.706758620 _1_ RTR  --- 14 message 32 [0 ffffffff 15 800] ------- [21:255 -1:255 32 0] 
r 0.706758886 _18_ RTR  --- 14 message 32 [0 ffffffff 15 800] ------- [21:255 -1:255 32 0] 
r 0.706759068 _6_ RTR  --- 14 message 32 [0 ffffffff 15 800] ------- [21:255 -1:255 32 0] 
r 0.706759073 _22_ RTR  --- 14 message 32 [0 ffffffff 15 800] ------- [21:255 -1:255 32 0] 
s 0.821435127 _23_ RTR  --- 15 message 32 [0 0 0 0] ------- [23:255 -1:255 32 0] 
s 0.821550127 _23_ MAC  --- 15 message 90 [0 ffffffff 17 800] ------- [23:255 -1:255 32 0] 
r 0.822270127 _24_ MAC  --- 15 message 32 [0 ffffffff 17 800] ------- [23:255 -1:255 32 0] 
r 0.822270127 _25_ MAC  --- 15 message 32 [0 ffffffff 17 800] ------- [23:255 -1:255 32 0] 
r 0.822270127 _26_ MAC  --- 15 message 32 [0 ffffffff 17 800] ------- [23:255 -1:255 32 0] 
r 0.822270127 _27_ MAC  --- 15 message 32 [0 ffffffff 17 800] ------- [23:255 -1:255 32 0] 
r 0.822295127 _24_ RTR  --- 15 message 32 [0 ffffffff 17 800] ------- [23:255 -1:255 32 0] 
r 0.822295127 _25_ RTR  --- 15 message 32 [0 ffffffff 17 800] ------- [23:255 -1:255 32 0] 
r 0.822295127 _26_ RTR  --- 15 message 32 [0 ffffffff 17 800] ------- [23:255 -1:255 32 0] 
r 0.822295127 _27_ RTR  --- 15 message 32 [0 ffffffff 17 800] ------- [23:255 -1:255 32 0] 
s 0.848147771 _17_ RTR  --- 16 message 32 [0 0 0 0] ------- [17:255 -1:255 32 0] 
s 0.848382771 _17_ MAC  --- 16 message 90 [0 ffffffff 11 800] ------- [17:255 -1:255 32 0] 
r 0.849103182 _13_ MAC  --- 16 message 32 [0 ffffffff 11 800] ------- [17:255 -1:255 32 0] 
r 0.849103511 _0_ MAC  --- 16 message 32 [0 ffffffff 11 800] ------- [17:255 -1:255 32 0] 
r 0.849103806 _11_ MAC  --- 16 message 32 [0 ffffffff 11 800] ------- [17:255 -1:255 32 0] 
r 0.849103819 _19_ MAC  --- 16 message 32 [0 ffffffff 11 800] ------- [17:255 -1:255 32 0] 
r 0.849104010 _28_ MAC  --- 16 message 32 [0 ffffffff 11 800] ------- [17:255 -1:255 32 0] 
r 0.849128182 _13_ RTR  --- 16 message 32 [0 ffffffff 11 800] ------- [17:255 -1:255 32 0] 
r 0.849128511 _0_ RTR  --- 16 message 32 [0 ffffffff 11 800] ------- [17:255 -1:255 32 0] 
r 0.849128806 _11_ RTR  --- 16 message 32 [0 ffffffff 11 800] ------- [17:255 -1:255 32 0] 
r 0.849128819 _19_ RTR  --- 16 message 32 [0 ffffffff 11 800] ------- [17:255 -1:255 32 0] 
r 0.849129010 _28_ RTR  --- 16 message 32 [0 ffffffff 11 800] ------- [17:255 -1:255 32 0] 
s 0.882674688 _4_ RTR  --- 17 message 32 [0 0 0 0] ------- [4:255 -1:255 32 0] 
s 0.882909688 _4_ MAC  --- 17 message 90 [0 ffffffff 4 800] ------- [4:255 -1:255 32 0] 
r 0.883630110 _21_ MAC  --- 17 message 32 [0 ffffffff 4 800] ------- [4:255 -1:255 32 0] 
r 0.883630229 _1_ MAC  --- 17 message 32 [0 ffffffff 4 800] ------- [4:255 -1:255 32 0] 
r 0.883630495 _6_ MAC  --- 17 message 32 [0 ffffffff 4 800] ------- [4:255 -1:255 32 0] 
r 0.883630503 _22_ MAC  --- 17 message 32 [0 ffffffff 4 800] ------- [4:255 -1:255 32 0] 
r 0.883630663 _7_ MAC  --- 17 message 32 [0 ffffffff 4 800] ------- [4:255 -1:255 32 0] 
r 0.883630834 _18_ MAC  --- 17 message 32 [0 ffffffff 4 800] ------- [4:255 -1:255 32 0] 
r 0.883631009 _9_ MAC  --- 17 message 32 [0 ffffffff 4 800] ------- [4:255 -1:255 32 0] 
r 0.883655110 _21_ RTR  --- 17 message 32 [0 ffffffff 4 800] ------- [4:255 -1:255 32 0] 
r 0.883655229 _1_ RTR  --- 17 message 32 [0 ffffffff 4 800] ------- [4:255 -1:255 32 0] 
r 0.883655495 _6_ RTR  --- 17 message 32 [0 ffffffff 4 800] ------- [4:255 -1:255 32 0] 
r 0.883655503 _22_ RTR  --- 17 message 32 [0 ffffffff 4 800] ------- [4:255 -1:255 32 0] 
r 0.883655663 _7_ RTR  --- 17 message 32 [0 ffffffff 4 800] ------- [4:255 -1:255 32 0] 
r 0.883655834 _18_ RTR  --- 17 message 32 [0 ffffffff 4 800] ------- [4:255 -1:255 32 0] 
r 0.883656009 _9_ RTR  --- 17 message 32 [0 ffffffff 4 800] ------- [4:255 -1:255 32 0] 
s 0.935449221 _25_ RTR  --- 18 message 32 [0 0 0 0] ------- [25:255 -1:255 32 0] 
s 0.935884221 _25_ MAC  --- 18 message 90 [0 ffffffff 19 800] ------- [25:255 -1:255 32 0] 
r 0.936604221 _24_ MAC  --- 18 message 32 [0 ffffffff 19 800] ------- [25:255 -1:255 32 0] 
r 0.936604221 _23_ MAC  --- 18 message 32 [0 ffffffff 19 800] ------- [25:255 -1:255 32 0] 
r 0.936604221 _26_ MAC  --- 18 message 32 [0 ffffffff 19 800] ------- [25:255 -1:255 32 0] 
r 0.936604221 _27_ MAC  --- 18 message 32 [0 ffffffff 19 800] ------- [25:255 -1:255 32 0] 
r 0.936629221 _24_ RTR  --- 18 message 32 [0 ffffffff 19 800] ------- [25:255 -1:255 32 0] 
r 0.936629221 _23_ RTR  --- 18 message 32 [0 ffffffff 19 800] ------- [25:255 -1:255 32 0] 
r 0.936629221 _26_ RTR  --- 18 message 32 [0 ffffffff 19 800] ------- [25:255 -1:255 32 0] 
r 0.936629221 _27_ RTR  --- 18 message 32 [0 ffffffff 19 800] ------- [25:255 -1:255 32 0] 
s 0.965167983 _0_ RTR  --- 19 message 32 [0 0 0 0] ------- [0:255 -1:255 32 0] 
s 0.965562983 _0_ MAC  --- 19 message 90 [0 ffffffff 0 800] ------- [0:255 -1:255 32 0] 
r 0.966283294 _19_ MAC  --- 19 message 32 [0 ffffffff 0 800] ------- [0:255 -1:255 32 0] 
r 0.966283561 _11_ MAC  --- 19 message 32 [0 ffffffff 0 800] ------- [0:255 -1:255 32 0] 
r 0.966283722 _17_ MAC  --- 19 message 32 [0 ffffffff 0 800] ------- [0:255 -1:255 32 0] 
r 0.966283780 _28_ MAC  --- 19 message 32 [0 ffffffff 0 800] ------- [0:255 -1:255 32 0] 
r 0.966283915 _13_ MAC  --- 19 message 32 [0 ffffffff 0 800] ------- [0:255 -1:255 32 0] 
r 0.966284075 _3_ MAC  --- 19 message 32 [0 ffffffff 0 800] ------- [0:255 -1:255 32 0] 
r 0.966308294 _19_ RTR  --- 19 message 32 [0 ffffffff 0 800] ------- [0:255 -1:255 32 0] 
r 0.966308561 _11_ RTR  --- 19 message 32 [0 ffffffff 0 800] ------- [0:255 -1:255 32 0] 
r 0.966308722 _17_ RTR  --- 19 message 32 [0 ffffffff 0 800] ------- [0:255 -1:255 32 0] 
r 0.966308780 _28_ RTR  --- 19 message 32 [0 ffffffff 0 800] ------- [0:255 -1:255 32 0] 
r 0.966308915 _13_ RTR  --- 19 message 32 [0 ffffffff 0 800] ------- [0:255 -1:255 32 0] 
r 0.966309075 _3_ RTR  --- 19 message 32 [0 ffffffff 0 800] ------- [0:255 -1:255 32 0] 
s 1.045193873 _24_ RTR  --- 20 message 32 [0 0 0 0] ------- [24:255 -1:255 32 0] 
s 1.045368873 _24_ MAC  --- 20 message 90 [0 ffffffff 18 800] ------- [24:255 -1:255 32 0] 
r 1.046088873 _23_ MAC  --- 20 message 32 [0 ffffffff 18 800] ------- [24:255 -1:255 32 0] 
r 1.046088873 _25_ MAC  --- 20 message 32 [0 ffffffff 18 800] ------- [24:255 -1:255 32 0] 
r 1.046088873 _26_ MAC  --- 20 message 32 [0 ffffffff 18 800] ------- [24:255 -1:255 32 0] 
r 1.046088873 _27_ MAC  --- 20 message 32 [0 ffffffff 18 800] ------- [24:255 -1:255 32 0] 
r 1.046113873 _23_ RTR  --- 20 message 32 [0 ffffffff 18 800] ------- [24:255 -1:255 32 0] 
r 1.046113873 _25_ RTR  --- 20 message 32 [0 ffffffff 18 800] ------- [24:255 -1:255 32 0] 
r 1.046113873 _26_ RTR  --- 20 message 32 [0 ffffffff 18 800] ------- [24:255 -1:255 32 0] 
r 1.046113873 _27_ RTR  --- 20 message 32 [0 ffffffff 18 800] ------- [24:255 -1:255 32 0] 
s 1.111921404 _1_ RTR  --- 21 message 32 [0 0 0 0] ------- [1:255 -1:255 32 0] 
s 1.112596404 _1_ MAC  --- 21 message 90 [0 ffffffff 1 800] ------- [1:255 -1:255 32 0] 
r 1.113316945 _4_ MAC  --- 21 message 32 [0 ffffffff 1 800] ------- [1:255 -1:255 32 0] 
r 1.113317150 _21_ MAC  --- 21 message 32 [0 ffffffff 1 800] ------- [1:255 -1:255 32 0] 
r 1.113317210 _18_ MAC  --- 21 message 32 [0 ffffffff 1 800] ------- [1:255 -1:255 32 0] 
r 1.113317461 _9_ MAC  --- 21 message 32 [0 ffffffff 1 800] ------- [1:255 -1:255 32 0] 
r 1.113317512 _6_ MAC  --- 21 message 32 [0 ffffffff 1 800] ------- [1:255 -1:255 32 0] 
r 1.113317527 _22_ MAC  --- 21 message 32 [0 ffffffff 1 800] ------- [1:255 -1:255 32 0] 
r 1.113317539 _29_ MAC  --- 21 message 32 [0 ffffffff 1 800] ------- [1:255 -1:255 32 0] 
r 1.113317686 _7_ MAC  --- 21 message 32 [0 ffffffff 1 800] ------- [1:255 -1:255 32 0] 
r 1.113341945 _4_ RTR  --- 21 message 32 [0 ffffffff 1 800] ------- [1:255 -1:255 32 0] 
r 1.113342150 _21_ RTR  --- 21 message 32 [0 ffffffff 1 800] ------- [1:255 -1:255 32 0] 
r 1.113342210 _18_ RTR  --- 21 message 32 [0 ffffffff 1 800] ------- [1:255 -1:255 32 0] 
r 1.113342461 _9_ RTR  --- 21 message 32 [0 ffffffff 1 800] ------- [1:255 -1:255 32 0] 
r 1.113342512 _6_ RTR  --- 21 message 32 [0 ffffffff 1 800] ------- [1:255 -1:255 32 0] 
r 1.113342527 _22_ RTR  --- 21 message 32 [0 ffffffff 1 800] ------- [1:255 -1:255 32 0] 
r 1.113342539 _29_ RTR  --- 21 message 32 [0 ffffffff 1 800] ------- [1:255 -1:255 32 0] 
r 1.113342686 _7_ RTR  --- 21 message 32 [0 ffffffff 1 800] ------- [1:255 -1:255 32 0] 
s 1.278922058 _9_ RTR  --- 22 message 32 [0 0 0 0] ------- [9:255 -1:255 32 0] 
s 1.279057058 _9_ MAC  --- 22 message 90 [0 ffffffff 9 800] ------- [9:255 -1:255 32 0] 
r 1.279778115 _1_ MAC  --- 22 message 32 [0 ffffffff 9 800] ------- [9:255 -1:255 32 0] 
r 1.279778199 _6_ MAC  --- 22 message 32 [0 ffffffff 9 800] ------- [9:255 -1:255 32 0] 
r 1.279778217 _22_ MAC  --- 22 message 32 [0 ffffffff 9 800] ------- [9:255 -1:255 32 0] 
r 1.279778276 _20_ MAC  --- 22 message 32 [0 ffffffff 9 800] ------- [9:255 -1:255 32 0] 
r 1.279778283 _7_ MAC  --- 22 message 32 [0 ffffffff 9 800] ------- [9:255 -1:255 32 0] 
r 1.279778379 _4_ MAC  --- 22 message 32 [0 ffffffff 9 800] ------- [9:255 -1:255 32 0] 
r 1.279803115 _1_ RTR  --- 22 message 32 [0 ffffffff 9 800] ------- [9:255 -1:255 32 0] 
r 1.279803199 _6_ RTR  --- 22 message 32 [0 ffffffff 9 800] ------- [9:255 -1:255 32 0] 
r 1.279803217 _22_ RTR  --- 22 message 32 [0 ffffffff 9 800] ------- [9:255 -1:255 32 0] 
r 1.279803276 _20_ RTR  --- 22 message 32 [0 ffffffff 9 800] ------- [9:255 -1:255 32 0] 
r 1.279803283 _7_ RTR  --- 22 message 32 [0 ffffffff 9 800] ------- [9:255 -1:255 32 0] 
r 1.279803379 _4_ RTR  --- 22 message 32 [0 ffffffff 9 800] ------- [9:255 -1:255 32 0] 
s 1.284364642 _14_ RTR  --- 23 message 32 [0 0 0 0] ------- [14:255 -1:255 32 0] 
s 1.284819642 _14_ MAC  --- 23 message 90 [0 ffffffff e 800] ------- [14:255 -1:255 32 0] 
r 1.285540055 _12_ MAC  --- 23 message 32 [0 ffffffff e 800] ------- [14:255 -1:255 32 0] 
r 1.285540251 _10_ MAC  --- 23 message 32 [0 ffffffff e 800] ------- [14:255 -1:255 32 0] 
r 1.285540290 _5_ MAC  --- 23 message 32 [0 ffffffff e 800] ------- [14:255 -1:255 32 0] 
r 1.285540717 _15_ MAC  --- 23 message 32 [0 ffffffff e 800] ------- [14:255 -1:255 32 0] 
r 1.285565055 _12_ RTR  --- 23 message 32 [0 ffffffff e 800] ------- [14:255 -1:255 32 0] 
r 1.285565251 _10_ RTR  --- 23 message 32 [0 ffffffff e 800] ------- [14:255 -1:255 32 0] 
r 1.285565290 _5_ RTR  --- 23 message 32 [0 ffffffff e 800] ------- [14:255 -1:255 32 0] 
r 1.285565717 _15_ RTR  --- 23 message 32 [0 ffffffff e 800] ------- [14:255 -1:255 32 0] 
s 1.393581673 _26_ RTR  --- 24 message 32 [0 0 0 0] ------- [26:255 -1:255 32 0] 
s 1.393976673 _26_ MAC  --- 24 message 90 [0 ffffffff 1a 800] ------- [26:255 -1:255 32 0] 
r 1.394696673 _25_ MAC  --- 24 message 32 [0 ffffffff 1a 800] ------- [26:255 -1:255 32 0] 
r 1.394696673 _24_ MAC  --- 24 message 32 [0 ffffffff 1a 800] ------- [26:255 -1:255 32 0] 
r 1.394696673 _23_ MAC  --- 24 message 32 [0 ffffffff 1a 800] ------- [26:255 -1:255 32 0] 
r 1.394696673 _27_ MAC  --- 24 message 32 [0 ffffffff 1a 800] ------- [26:255 -1:255 32 0] 
r 1.394721673 _25_ RTR  --- 24 message 32 [0 ffffffff 1a 800] ------- [26:255 -1:255 32 0] 
r 1.394721673 _24_ RTR  --- 24 message 32 [0 ffffffff 1a 800] ------- [26:255 -1:255 32 0] 
r 1.394721673 _23_ RTR  --- 24 message 32 [0 ffffffff 1a 800] ------- [26:255 -1:255 32 0] 
r 1.394721673 _27_ RTR  --- 24 message 32 [0 ffffffff 1a 800] ------- [26:255 -1:255 32 0] 
s 1.600666314 _5_ RTR  --- 25 message 32 [0 0 0 0] ------- [5:255 -1:255 32 0] 
s 1.600881314 _5_ MAC  --- 25 message 90 [0 ffffffff 5 800] ------- [5:255 -1:255 32 0] 
r 1.601601741 _12_ MAC  --- 25 message 32 [0 ffffffff 5 800] ------- [5:255 -1:255 32 0] 
r 1.601601962 _14_ MAC  --- 25 message 32 [0 ffffffff 5 800] ------- [5:255 -1:255 32 0] 
r 1.601602552 _10_ MAC  --- 25 message 32 [0 ffffffff 5 800] ------- [5:255 -1:255 32 0] 
r 1.601626741 _12_ RTR  --- 25 message 32 [0 ffffffff 5 800] ------- [5:255 -1:255 32 0] 
r 1.601626962 _14_ RTR  --- 25 message 32 [0 ffffffff 5 800] ------- [5:255 -1:255 32 0] 
r 1.601627552 _10_ RTR  --- 25 message 32 [0 ffffffff 5 800] ------- [5:255 -1:255 32 0] 
s 1.614452143 _20_ RTR  --- 26 message 32 [0 0 0 0] ------- [20:255 -1:255 32 0] 
s 1.614527143 _20_ MAC  --- 26 message 90 [0 ffffffff 14 800] ------- [20:255 -1:255 32 0] 
r 1.615247551 _7_ MAC  --- 26 message 32 [0 ffffffff 14 800] ------- [20:255 -1:255 32 0] 
r 1.615247623 _16_ MAC  --- 26 message 32 [0 ffffffff 14 800] ------- [20:255 -1:255 32 0] 
r 1.615247671 _8_ MAC  --- 26 message 32 [0 ffffffff 14 800] ------- [20:255 -1:255 32 0] 
r 1.615247689 _22_ MAC  --- 26 message 32 [0 ffffffff 14 800] ------- [20:255 -1:255 32 0] 
r 1.615247692 _6_ MAC  --- 26 message 32 [0 ffffffff 14 800] ------- [20:255 -1:255 32 0] 
r 1.615248361 _9_ MAC  --- 26 message 32 [0 ffffffff 14 800] ------- [20:255 -1:255 32 0] 
r 1.615248410 _13_ MAC  --- 26 message 32 [0 ffffffff 14 800] ------- [20:255 -1:255 32 0] 
r 1.615272551 _7_ RTR  --- 26 message 32 [0 ffffffff 14 800] ------- [20:255 -1:255 32 0] 
r 1.615272623 _16_ RTR  --- 26 message 32 [0 ffffffff 14 800] ------- [20:255 -1:255 32 0] 
r 1.615272671 _8_ RTR  --- 26 message 32 [0 ffffffff 14 800] ------- [20:255 -1:255 32 0] 
r 1.615272689 _22_ RTR  --- 26 message 32 [0 ffffffff 14 800] ------- [20:255 -1:255 32 0] 
r 1.615272692 _6_ RTR  --- 26 message 32 [0 ffffffff 14 800] ------- [20:255 -1:255 32 0] 
r 1.615273361 _9_ RTR  --- 26 message 32 [0 ffffffff 14 800] ------- [20:255 -1:255 32 0] 