n -t * -s 0  -x 234.12 -y 1049.24 -Z 0 -z 100  -v circle -c black
n -t * -s 1  -x 834.46000000000004 -y 297.48000000000002 -Z 0 -z 100  -v circle -c black
n -t * -s 2  -x 710.16999999999996 -y 1171.48 -Z 0 -z 100  -v circle -c black
n -t * -s 3  -x 185.16999999999999 -y 1373.3099999999999 -Z 0 -z 100  -v circle -c black
n -t * -s 4  -x 779.42999999999995 -y 450.33999999999997 -Z 0 -z 100  -v circle -c black
n -t * -s 5  -x 1297.0899999999999 -y 1059.4200000000001 -Z 0 -z 100  -v circle -c black
n -t * -s 6  -x 537.38999999999999 -y 446.76999999999998 -Z 0 -z 100  -v circle -c black
n -t * -s 7  -x 487.10000000000002 -y 462.75999999999999 -Z 0 -z 100  -v circle -c black
n -t * -s 8  -x 234.56 -y 339.88 -Z 0 -z 100  -v circle -c black
n -t * -s 9  -x 580.75 -y 107.26000000000001 -Z 0 -z 100  -v circle -c black
n -t * -s 10  -x 926.40999999999997 -y 1085.6800000000001 -Z 0 -z 100  -v circle -c black
n -t * -s 11  -x 363.23000000000002 -y 1164.99 -Z 0 -z 100  -v circle -c black
n -t * -s 12  -x 1181.26 -y 1004.47 -Z 0 -z 100  -v circle -c black
n -t * -s 13  -x 253.36000000000001 -y 770.15999999999997 -Z 0 -z 100  -v circle -c black
n -t * -s 14  -x 1108.02 -y 1104.49 -Z 0 -z 100  -v circle -c black
n -t * -s 15  -x 974.25 -y 1397.78 -Z 0 -z 100  -v circle -c black
n -t * -s 16  -x 234.5 -y 387.00999999999999 -Z 0 -z 100  -v circle -c black
n -t * -s 17  -x 342.27999999999997 -y 855.42999999999995 -Z 0 -z 100  -v circle -c black
n -t * -s 18  -x 1075.29 -y 275.12 -Z 0 -z 100  -v circle -c black
n -t * -s 19  -x 204.91 -y 1138.0599999999999 -Z 0 -z 100  -v circle -c black
n -t * -s 20  -x 376.52999999999997 -y 410.38999999999999 -Z 0 -z 100  -v circle -c black
n -t * -s 21  -x 888.83000000000004 -y 514.53999999999996 -Z 0 -z 100  -v circle -c black
n -t * -s 22  -x 534.91999999999996 -y 451.91000000000003 -Z 0 -z 100  -v circle -c black
n -t * -s 23  -x 0 -y 0 -Z 0 -z 100  -v circle -c black
n -t * -s 24  -x 0 -y 0 -Z 0 -z 100  -v circle -c black
n -t * -s 25  -x 0 -y 0 -Z 0 -z 100  -v circle -c black
n -t * -s 26  -x 0 -y 0 -Z 0 -z 100  -v circle -c black
n -t * -s 27  -x 0 -y 0 -Z 0 -z 100  -v circle -c black
n -t * -s 28  -x 0 -y 1000 -Z 0 -z 100  -v circle -c black
n -t * -s 29  -x 1000 -y 0 -Z 0 -z 100  -v circle -c black
V -t * -v 1.0a5 -a 0
W -t * -x 1700 -y 1700
A -t * -n 1 -p 0 -o 0x7fffffff -c 30 -a 1
A -t * -h 1 -m 1073741823 -s 0
n -t 0.000000 -s 0 -x 234.120000 -y 1049.240000 -U 0.000000 -V 0.000000 -T 0.000000
n -t 0.000000 -s 1 -x 834.460000 -y 297.480000 -U 0.000000 -V 0.000000 -T 0.000000
n -t 0.000000 -s 2 -x 710.170000 -y 1171.480000 -U 0.000000 -V 0.000000 -T 0.000000
n -t 0.000000 -s 3 -x 185.170000 -y 1373.310000 -U 0.000000 -V 0.000000 -T 0.000000
n -t 0.000000 -s 4 -x 779.430000 -y 450.340000 -U 0.000000 -V 0.000000 -T 0.000000
n -t 0.000000 -s 5 -x 1297.090000 -y 1059.420000 -U 0.000000 -V 0.000000 -T 0.000000
n -t 0.000000 -s 6 -x 537.390000 -y 446.770000 -U 0.000000 -V 0.000000 -T 0.000000
n -t 0.000000 -s 7 -x 487.100000 -y 462.760000 -U 0.000000 -V 0.000000 -T 0.000000
n -t 0.000000 -s 8 -x 234.560000 -y 339.880000 -U 0.000000 -V 0.000000 -T 0.000000
n -t 0.000000 -s 9 -x 580.750000 -y 107.260000 -U 0.000000 -V 0.000000 -T 0.000000
n -t 0.000000 -s 10 -x 926.410000 -y 1085.680000 -U 0.000000 -V 0.000000 -T 0.000000
n -t 0.000000 -s 11 -x 363.230000 -y 1164.990000 -U 0.000000 -V 0.000000 -T 0.000000
n -t 0.000000 -s 12 -x 1181.260000 -y 1004.470000 -U 0.000000 -V 0.000000 -T 0.000000
n -t 0.000000 -s 13 -x 253.360000 -y 770.160000 -U 0.000000 -V 0.000000 -T 0.000000
n -t 0.000000 -s 14 -x 1108.020000 -y 1104.490000 -U 0.000000 -V 0.000000 -T 0.000000
n -t 0.000000 -s 15 -x 974.250000 -y 1397.780000 -U 0.000000 -V 0.000000 -T 0.000000
n -t 0.000000 -s 16 -x 234.500000 -y 387.010000 -U 0.000000 -V 0.000000 -T 0.000000
n -t 0.000000 -s 17 -x 342.280000 -y 855.430000 -U 0.000000 -V 0.000000 -T 0.000000
n -t 0.000000 -s 18 -x 1075.290000 -y 275.120000 -U 0.000000 -V 0.000000 -T 0.000000
n -t 0.000000 -s 19 -x 204.910000 -y 1138.060000 -U 0.000000 -V 0.000000 -T 0.000000
n -t 0.000000 -s 20 -x 376.530000 -y 410.390000 -U 0.000000 -V 0.000000 -T 0.000000
n -t 0.000000 -s 21 -x 888.830000 -y 514.540000 -U 0.000000 -V 0.000000 -T 0.000000
n -t 0.000000 -s 22 -x 534.920000 -y 451.910000 -U 0.000000 -V 0.000000 -T 0.000000
n -t 0.000000 -s 0 -x 234.120000 -y 1049.240000 -U 0.000000 -V 0.000000 -T 0.000000
+ -t 0.003091411 -s 0 -d -1 -p message -e 32 -c 2 -a 0 -i 0 -k RTR 
- -t 0.003091411 -s 0 -d -1 -p message -e 32 -c 2 -a 0 -i 0 -k RTR
h -t 0.003091411 -s 0 -d -1 -p message -e 32 -c 2 -a 0 -i 0 -k RTR
+ -t 0.003466411 -s 0 -d -1 -p message -e 90 -c 2 -a 0 -i 0 -k MAC 
- -t 0.003466411 -s 0 -d -1 -p message -e 90 -c 2 -a 0 -i 0 -k MAC
h -t 0.003466411 -s 0 -d -1 -p message -e 90 -c 2 -a 0 -i 0 -k MAC
r -t 0.004186722 -s 19 -d -1 -p message -e 32 -c 2 -a 0 -i 0 -k MAC
r -t 0.004186989 -s 11 -d -1 -p message -e 32 -c 2 -a 0 -i 0 -k MAC
r -t 0.004187151 -s 17 -d -1 -p message -e 32 -c 2 -a 0 -i 0 -k MAC
r -t 0.004187208 -s 28 -d -1 -p message -e 32 -c 2 -a 0 -i 0 -k MAC
r -t 0.004187343 -s 13 -d -1 -p message -e 32 -c 2 -a 0 -i 0 -k MAC
r -t 0.004187503 -s 3 -d -1 -p message -e 32 -c 2 -a 0 -i 0 -k MAC
r -t 0.004211722 -s 19 -d -1 -p message -e 32 -c 2 -a 0 -i 0 -k RTR
r -t 0.004211989 -s 11 -d -1 -p message -e 32 -c 2 -a 0 -i 0 -k RTR
r -t 0.004212151 -s 17 -d -1 -p message -e 32 -c 2 -a 0 -i 0 -k RTR
r -t 0.004212208 -s 28 -d -1 -p message -e 32 -c 2 -a 0 -i 0 -k RTR
r -t 0.004212343 -s 13 -d -1 -p message -e 32 -c 2 -a 0 -i 0 -k RTR
r -t 0.004212503 -s 3 -d -1 -p message -e 32 -c 2 -a 0 -i 0 -k RTR
+ -t 0.037458776 -s 2 -d -1 -p message -e 32 -c 2 -a 0 -i 1 -k RTR 
- -t 0.037458776 -s 2 -d -1 -p message -e 32 -c 2 -a 0 -i 1 -k RTR
h -t 0.037458776 -s 2 -d -1 -p message -e 32 -c 2 -a 0 -i 1 -k RTR
+ -t 0.037813776 -s 2 -d -1 -p message -e 90 -c 2 -a 0 -i 1 -k MAC 
- -t 0.037813776 -s 2 -d -1 -p message -e 90 -c 2 -a 0 -i 1 -k MAC
h -t 0.037813776 -s 2 -d -1 -p message -e 90 -c 2 -a 0 -i 1 -k MAC
r -t 0.038534551 -s 10 -d -1 -p message -e 32 -c 2 -a 0 -i 1 -k MAC
r -t 0.038534933 -s 11 -d -1 -p message -e 32 -c 2 -a 0 -i 1 -k MAC
r -t 0.038534935 -s 15 -d -1 -p message -e 32 -c 2 -a 0 -i 1 -k MAC
r -t 0.038559551 -s 10 -d -1 -p message -e 32 -c 2 -a 0 -i 1 -k RTR
r -t 0.038559933 -s 11 -d -1 -p message -e 32 -c 2 -a 0 -i 1 -k RTR
r -t 0.038559935 -s 15 -d -1 -p message -e 32 -c 2 -a 0 -i 1 -k RTR
+ -t 0.087462768 -s 13 -d -1 -p message -e 32 -c 2 -a 0 -i 2 -k RTR 
- -t 0.087462768 -s 13 -d -1 -p message -e 32 -c 2 -a 0 -i 2 -k RTR
h -t 0.087462768 -s 13 -d -1 -p message -e 32 -c 2 -a 0 -i 2 -k RTR
+ -t 0.087757768 -s 13 -d -1 -p message -e 90 -c 2 -a 0 -i 2 -k MAC 
- -t 0.087757768 -s 13 -d -1 -p message -e 90 -c 2 -a 0 -i 2 -k MAC
h -t 0.087757768 -s 13 -d -1 -p message -e 90 -c 2 -a 0 -i 2 -k MAC
r -t 0.088478179 -s 17 -d -1 -p message -e 32 -c 2 -a 0 -i 2 -k MAC
r -t 0.088478700 -s 0 -d -1 -p message -e 32 -c 2 -a 0 -i 2 -k MAC
r -t 0.088478908 -s 28 -d -1 -p message -e 32 -c 2 -a 0 -i 2 -k MAC
r -t 0.088479005 -s 19 -d -1 -p message -e 32 -c 2 -a 0 -i 2 -k MAC
r -t 0.088479035 -s 20 -d -1 -p message -e 32 -c 2 -a 0 -i 2 -k MAC
r -t 0.088479047 -s 16 -d -1 -p message -e 32 -c 2 -a 0 -i 2 -k MAC
r -t 0.088479055 -s 7 -d -1 -p message -e 32 -c 2 -a 0 -i 2 -k MAC
r -t 0.088503179 -s 17 -d -1 -p message -e 32 -c 2 -a 0 -i 2 -k RTR
r -t 0.088503700 -s 0 -d -1 -p message -e 32 -c 2 -a 0 -i 2 -k RTR
r -t 0.088503908 -s 28 -d -1 -p message -e 32 -c 2 -a 0 -i 2 -k RTR
r -t 0.088504005 -s 19 -d -1 -p message -e 32 -c 2 -a 0 -i 2 -k RTR
r -t 0.088504035 -s 20 -d -1 -p message -e 32 -c 2 -a 0 -i 2 -k RTR
r -t 0.088504047 -s 16 -d -1 -p message -e 32 -c 2 -a 0 -i 2 -k RTR
r -t 0.088504055 -s 7 -d -1 -p message -e 32 -c 2 -a 0 -i 2 -k RTR
+ -t 0.177365656 -s 3 -d -1 -p message -e 32 -c 2 -a 0 -i 3 -k RTR 
- -t 0.177365656 -s 3 -d -1 -p message -e 32 -c 2 -a 0 -i 3 -k RTR
h -t 0.177365656 -s 3 -d -1 -p message -e 32 -c 2 -a 0 -i 3 -k RTR
+ -t 0.177560656 -s 3 -d -1 -p message -e 90 -c 2 -a 0 -i 3 -k MAC 
- -t 0.177560656 -s 3 -d -1 -p message -e 90 -c 2 -a 0 -i 3 -k MAC
h -t 0.177560656 -s 3 -d -1 -p message -e 90 -c 2 -a 0 -i 3 -k MAC
r -t 0.178281443 -s 19 -d -1 -p message -e 32 -c 2 -a 0 -i 3 -k MAC
r -t 0.178281569 -s 11 -d -1 -p message -e 32 -c 2 -a 0 -i 3 -k MAC
r -t 0.178281748 -s 0 -d -1 -p message -e 32 -c 2 -a 0 -i 3 -k MAC
r -t 0.178306443 -s 19 -d -1 -p message -e 32 -c 2 -a 0 -i 3 -k RTR
r -t 0.178306569 -s 11 -d -1 -p message -e 32 -c 2 -a 0 -i 3 -k RTR
r -t 0.178306748 -s 0 -d -1 -p message -e 32 -c 2 -a 0 -i 3 -k RTR
+ -t 0.191634337 -s 19 -d -1 -p message -e 32 -c 2 -a 0 -i 4 -k RTR 
- -t 0.191634337 -s 19 -d -1 -p message -e 32 -c 2 -a 0 -i 4 -k RTR
h -t 0.191634337 -s 19 -d -1 -p message -e 32 -c 2 -a 0 -i 4 -k RTR
+ -t 0.191889337 -s 19 -d -1 -p message -e 90 -c 2 -a 0 -i 4 -k MAC 
- -t 0.191889337 -s 19 -d -1 -p message -e 90 -c 2 -a 0 -i 4 -k MAC
h -t 0.191889337 -s 19 -d -1 -p message -e 90 -c 2 -a 0 -i 4 -k MAC
r -t 0.192609648 -s 0 -d -1 -p message -e 32 -c 2 -a 0 -i 4 -k MAC
r -t 0.192609872 -s 11 -d -1 -p message -e 32 -c 2 -a 0 -i 4 -k MAC
r -t 0.192610124 -s 3 -d -1 -p message -e 32 -c 2 -a 0 -i 4 -k MAC
r -t 0.192610160 -s 28 -d -1 -p message -e 32 -c 2 -a 0 -i 4 -k MAC
r -t 0.192610384 -s 17 -d -1 -p message -e 32 -c 2 -a 0 -i 4 -k MAC
r -t 0.192610574 -s 13 -d -1 -p message -e 32 -c 2 -a 0 -i 4 -k MAC
r -t 0.192634648 -s 0 -d -1 -p message -e 32 -c 2 -a 0 -i 4 -k RTR
r -t 0.192634872 -s 11 -d -1 -p message -e 32 -c 2 -a 0 -i 4 -k RTR
r -t 0.192635124 -s 3 -d -1 -p message -e 32 -c 2 -a 0 -i 4 -k RTR
r -t 0.192635160 -s 28 -d -1 -p message -e 32 -c 2 -a 0 -i 4 -k RTR
r -t 0.192635384 -s 17 -d -1 -p message -e 32 -c 2 -a 0 -i 4 -k RTR
r -t 0.192635574 -s 13 -d -1 -p message -e 32 -c 2 -a 0 -i 4 -k RTR
+ -t 0.234603229 -s 15 -d -1 -p message -e 32 -c 2 -a 0 -i 5 -k RTR 
- -t 0.234603229 -s 15 -d -1 -p message -e 32 -c 2 -a 0 -i 5 -k RTR
h -t 0.234603229 -s 15 -d -1 -p message -e 32 -c 2 -a 0 -i 5 -k RTR
+ -t 0.234898229 -s 15 -d -1 -p message -e 90 -c 2 -a 0 -i 5 -k MAC 
- -t 0.234898229 -s 15 -d -1 -p message -e 90 -c 2 -a 0 -i 5 -k MAC
h -t 0.234898229 -s 15 -d -1 -p message -e 90 -c 2 -a 0 -i 5 -k MAC
r -t 0.235619282 -s 10 -d -1 -p message -e 32 -c 2 -a 0 -i 5 -k MAC
r -t 0.235619304 -s 14 -d -1 -p message -e 32 -c 2 -a 0 -i 5 -k MAC
r -t 0.235619389 -s 2 -d -1 -p message -e 32 -c 2 -a 0 -i 5 -k MAC
r -t 0.235644282 -s 10 -d -1 -p message -e 32 -c 2 -a 0 -i 5 -k RTR
r -t 0.235644304 -s 14 -d -1 -p message -e 32 -c 2 -a 0 -i 5 -k RTR
r -t 0.235644389 -s 2 -d -1 -p message -e 32 -c 2 -a 0 -i 5 -k RTR
+ -t 0.333839210 -s 12 -d -1 -p message -e 32 -c 2 -a 0 -i 6 -k RTR 
- -t 0.333839210 -s 12 -d -1 -p message -e 32 -c 2 -a 0 -i 6 -k RTR
h -t 0.333839210 -s 12 -d -1 -p message -e 32 -c 2 -a 0 -i 6 -k RTR
+ -t 0.333994210 -s 12 -d -1 -p message -e 90 -c 2 -a 0 -i 6 -k MAC 
- -t 0.333994210 -s 12 -d -1 -p message -e 90 -c 2 -a 0 -i 6 -k MAC
h -t 0.333994210 -s 12 -d -1 -p message -e 90 -c 2 -a 0 -i 6 -k MAC
r -t 0.334714623 -s 14 -d -1 -p message -e 32 -c 2 -a 0 -i 6 -k MAC
r -t 0.334714637 -s 5 -d -1 -p message -e 32 -c 2 -a 0 -i 6 -k MAC
r -t 0.334715102 -s 10 -d -1 -p message -e 32 -c 2 -a 0 -i 6 -k MAC
r -t 0.334739623 -s 14 -d -1 -p message -e 32 -c 2 -a 0 -i 6 -k RTR
r -t 0.334739637 -s 5 -d -1 -p message -e 32 -c 2 -a 0 -i 6 -k RTR
r -t 0.334740102 -s 10 -d -1 -p message -e 32 -c 2 -a 0 -i 6 -k RTR
+ -t 0.351472650 -s 18 -d -1 -p message -e 32 -c 2 -a 0 -i 7 -k RTR 
- -t 0.351472650 -s 18 -d -1 -p message -e 32 -c 2 -a 0 -i 7 -k RTR
h -t 0.351472650 -s 18 -d -1 -p message -e 32 -c 2 -a 0 -i 7 -k RTR
+ -t 0.351847650 -s 18 -d -1 -p message -e 90 -c 2 -a 0 -i 7 -k MAC 
- -t 0.351847650 -s 18 -d -1 -p message -e 90 -c 2 -a 0 -i 7 -k MAC
h -t 0.351847650 -s 18 -d -1 -p message -e 90 -c 2 -a 0 -i 7 -k MAC
r -t 0.352568456 -s 1 -d -1 -p message -e 32 -c 2 -a 0 -i 7 -k MAC
r -t 0.352568601 -s 29 -d -1 -p message -e 32 -c 2 -a 0 -i 7 -k MAC
r -t 0.352568662 -s 21 -d -1 -p message -e 32 -c 2 -a 0 -i 7 -k MAC
r -t 0.352568796 -s 4 -d -1 -p message -e 32 -c 2 -a 0 -i 7 -k MAC
r -t 0.352593456 -s 1 -d -1 -p message -e 32 -c 2 -a 0 -i 7 -k RTR
r -t 0.352593601 -s 29 -d -1 -p message -e 32 -c 2 -a 0 -i 7 -k RTR
r -t 0.352593662 -s 21 -d -1 -p message -e 32 -c 2 -a 0 -i 7 -k RTR
r -t 0.352593796 -s 4 -d -1 -p message -e 32 -c 2 -a 0 -i 7 -k RTR
+ -t 0.436386259 -s 29 -d -1 -p message -e 32 -c 2 -a 0 -i 8 -k RTR 
- -t 0.436386259 -s 29 -d -1 -p message -e 32 -c 2 -a 0 -i 8 -k RTR
h -t 0.436386259 -s 29 -d -1 -p message -e 32 -c 2 -a 0 -i 8 -k RTR
+ -t 0.436701259 -s 29 -d -1 -p message -e 90 -c 2 -a 0 -i 8 -k MAC 
- -t 0.436701259 -s 29 -d -1 -p message -e 90 -c 2 -a 0 -i 8 -k MAC
h -t 0.436701259 -s 29 -d -1 -p message -e 90 -c 2 -a 0 -i 8 -k MAC
r -t 0.437422210 -s 18 -d -1 -p message -e 32 -c 2 -a 0 -i 8 -k MAC
r -t 0.437422394 -s 1 -d -1 -p message -e 32 -c 2 -a 0 -i 8 -k MAC
r -t 0.437447210 -s 18 -d -1 -p message -e 32 -c 2 -a 0 -i 8 -k RTR
r -t 0.437447394 -s 1 -d -1 -p message -e 32 -c 2 -a 0 -i 8 -k RTR
+ -t 0.470117073 -s 8 -d -1 -p message -e 32 -c 2 -a 0 -i 9 -k RTR 
- -t 0.470117073 -s 8 -d -1 -p message -e 32 -c 2 -a 0 -i 9 -k RTR
h -t 0.470117073 -s 8 -d -1 -p message -e 32 -c 2 -a 0 -i 9 -k RTR
+ -t 0.470652073 -s 8 -d -1 -p message -e 90 -c 2 -a 0 -i 9 -k MAC 
- -t 0.470652073 -s 8 -d -1 -p message -e 90 -c 2 -a 0 -i 9 -k MAC
h -t 0.470652073 -s 8 -d -1 -p message -e 90 -c 2 -a 0 -i 9 -k MAC
r -t 0.471372230 -s 16 -d -1 -p message -e 32 -c 2 -a 0 -i 9 -k MAC
r -t 0.471372601 -s 20 -d -1 -p message -e 32 -c 2 -a 0 -i 9 -k MAC
r -t 0.471373009 -s 7 -d -1 -p message -e 32 -c 2 -a 0 -i 9 -k MAC
r -t 0.471373141 -s 22 -d -1 -p message -e 32 -c 2 -a 0 -i 9 -k MAC
r -t 0.471373143 -s 6 -d -1 -p message -e 32 -c 2 -a 0 -i 9 -k MAC
r -t 0.471397230 -s 16 -d -1 -p message -e 32 -c 2 -a 0 -i 9 -k RTR
r -t 0.471397601 -s 20 -d -1 -p message -e 32 -c 2 -a 0 -i 9 -k RTR
r -t 0.471398009 -s 7 -d -1 -p message -e 32 -c 2 -a 0 -i 9 -k RTR
r -t 0.471398141 -s 22 -d -1 -p message -e 32 -c 2 -a 0 -i 9 -k RTR
r -t 0.471398143 -s 6 -d -1 -p message -e 32 -c 2 -a 0 -i 9 -k RTR
+ -t 0.521504883 -s 22 -d -1 -p message -e 32 -c 2 -a 0 -i 10 -k RTR 
- -t 0.521504883 -s 22 -d -1 -p message -e 32 -c 2 -a 0 -i 10 -k RTR
h -t 0.521504883 -s 22 -d -1 -p message -e 32 -c 2 -a 0 -i 10 -k RTR
+ -t 0.521659883 -s 22 -d -1 -p message -e 90 -c 2 -a 0 -i 10 -k MAC 
- -t 0.521659883 -s 22 -d -1 -p message -e 90 -c 2 -a 0 -i 10 -k MAC
h -t 0.521659883 -s 22 -d -1 -p message -e 90 -c 2 -a 0 -i 10 -k MAC
r -t 0.522379902 -s 6 -d -1 -p message -e 32 -c 2 -a 0 -i 10 -k MAC
r -t 0.522380047 -s 7 -d -1 -p message -e 32 -c 2 -a 0 -i 10 -k MAC
r -t 0.522380429 -s 20 -d -1 -p message -e 32 -c 2 -a 0 -i 10 -k MAC
r -t 0.522380698 -s 4 -d -1 -p message -e 32 -c 2 -a 0 -i 10 -k MAC
r -t 0.522380908 -s 16 -d -1 -p message -e 32 -c 2 -a 0 -i 10 -k MAC
r -t 0.522380952 -s 8 -d -1 -p message -e 32 -c 2 -a 0 -i 10 -k MAC
r -t 0.522381007 -s 1 -d -1 -p message -e 32 -c 2 -a 0 -i 10 -k MAC
r -t 0.522381042 -s 9 -d -1 -p message -e 32 -c 2 -a 0 -i 10 -k MAC
r -t 0.522381081 -s 21 -d -1 -p message -e 32 -c 2 -a 0 -i 10 -k MAC
r -t 0.522404902 -s 6 -d -1 -p message -e 32 -c 2 -a 0 -i 10 -k RTR
r -t 0.522405047 -s 7 -d -1 -p message -e 32 -c 2 -a 0 -i 10 -k RTR
r -t 0.522405429 -s 20 -d -1 -p message -e 32 -c 2 -a 0 -i 10 -k RTR
r -t 0.522405698 -s 4 -d -1 -p message -e 32 -c 2 -a 0 -i 10 -k RTR
r -t 0.522405908 -s 16 -d -1 -p message -e 32 -c 2 -a 0 -i 10 -k RTR
r -t 0.522405952 -s 8 -d -1 -p message -e 32 -c 2 -a 0 -i 10 -k RTR
r -t 0.522406007 -s 1 -d -1 -p message -e 32 -c 2 -a 0 -i 10 -k RTR
r -t 0.522406042 -s 9 -d -1 -p message -e 32 -c 2 -a 0 -i 10 -k RTR
r -t 0.522406081 -s 21 -d -1 -p message -e 32 -c 2 -a 0 -i 10 -k RTR
+ -t 0.556838879 -s 28 -d -1 -p cbr -e 512 -c 2 -a 0 -i 11 -k AGT 
- -t 0.556838879 -s 28 -d -1 -p cbr -e 512 -c 2 -a 0 -i 11 -k AGT
h -t 0.556838879 -s 28 -d -1 -p cbr -e 512 -c 2 -a 0 -i 11 -k AGT
+ -t 0.627186592 -s 10 -d -1 -p message -e 32 -c 2 -a 0 -i 12 -k RTR 
- -t 0.627186592 -s 10 -d -1 -p message -e 32 -c 2 -a 0 -i 12 -k RTR
h -t 0.627186592 -s 10 -d -1 -p message -e 32 -c 2 -a 0 -i 12 -k RTR
+ -t 0.627321592 -s 10 -d -1 -p message -e 90 -c 2 -a 0 -i 12 -k MAC 
- -t 0.627321592 -s 10 -d -1 -p message -e 90 -c 2 -a 0 -i 12 -k MAC
h -t 0.627321592 -s 10 -d -1 -p message -e 90 -c 2 -a 0 -i 12 -k MAC
r -t 0.628042201 -s 14 -d -1 -p message -e 32 -c 2 -a 0 -i 12 -k MAC
r -t 0.628042368 -s 2 -d -1 -p message -e 32 -c 2 -a 0 -i 12 -k MAC
r -t 0.628042484 -s 12 -d -1 -p message -e 32 -c 2 -a 0 -i 12 -k MAC
r -t 0.628042645 -s 15 -d -1 -p message -e 32 -c 2 -a 0 -i 12 -k MAC
r -t 0.628042831 -s 5 -d -1 -p message -e 32 -c 2 -a 0 -i 12 -k MAC
r -t 0.628067201 -s 14 -d -1 -p message -e 32 -c 2 -a 0 -i 12 -k RTR
r -t 0.628067368 -s 2 -d -1 -p message -e 32 -c 2 -a 0 -i 12 -k RTR
r -t 0.628067484 -s 12 -d -1 -p message -e 32 -c 2 -a 0 -i 12 -k RTR
r -t 0.628067645 -s 15 -d -1 -p message -e 32 -c 2 -a 0 -i 12 -k RTR
r -t 0.628067831 -s 5 -d -1 -p message -e 32 -c 2 -a 0 -i 12 -k RTR
+ -t 0.634670006 -s 6 -d -1 -p message -e 32 -c 2 -a 0 -i 13 -k RTR 
- -t 0.634670006 -s 6 -d -1 -p message -e 32 -c 2 -a 0 -i 13 -k RTR
h -t 0.634670006 -s 6 -d -1 -p message -e 32 -c 2 -a 0 -i 13 -k RTR
+ -t 0.634865006 -s 6 -d -1 -p message -e 90 -c 2 -a 0 -i 13 -k MAC 
- -t 0.634865006 -s 6 -d -1 -p message -e 90 -c 2 -a 0 -i 13 -k MAC
h -t 0.634865006 -s 6 -d -1 -p message -e 90 -c 2 -a 0 -i 13 -k MAC
r -t 0.635585025 -s 22 -d -1 -p message -e 32 -c 2 -a 0 -i 13 -k MAC
r -t 0.635585182 -s 7 -d -1 -p message -e 32 -c 2 -a 0 -i 13 -k MAC
r -t 0.635585556 -s 20 -d -1 -p message -e 32 -c 2 -a 0 -i 13 -k MAC
r -t 0.635585813 -s 4 -d -1 -p message -e 32 -c 2 -a 0 -i 13 -k MAC
r -t 0.635586035 -s 16 -d -1 -p message -e 32 -c 2 -a 0 -i 13 -k MAC
r -t 0.635586077 -s 8 -d -1 -p message -e 32 -c 2 -a 0 -i 13 -k MAC
r -t 0.635586115 -s 1 -d -1 -p message -e 32 -c 2 -a 0 -i 13 -k MAC
r -t 0.635586147 -s 9 -d -1 -p message -e 32 -c 2 -a 0 -i 13 -k MAC
r -t 0.635586199 -s 21 -d -1 -p message -e 32 -c 2 -a 0 -i 13 -k MAC
r -t 0.635610025 -s 22 -d -1 -p message -e 32 -c 2 -a 0 -i 13 -k RTR
r -t 0.635610182 -s 7 -d -1 -p message -e 32 -c 2 -a 0 -i 13 -k RTR
r -t 0.635610556 -s 20 -d -1 -p message -e 32 -c 2 -a 0 -i 13 -k RTR
r -t 0.635610813 -s 4 -d -1 -p message -e 32 -c 2 -a 0 -i 13 -k RTR
r -t 0.635611035 -s 16 -d -1 -p message -e 32 -c 2 -a 0 -i 13 -k RTR
r -t 0.635611077 -s 8 -d -1 -p message -e 32 -c 2 -a 0 -i 13 -k RTR
r -t 0.635611115 -s 1 -d -1 -p message -e 32 -c 2 -a 0 -i 13 -k RTR
r -t 0.635611147 -s 9 -d -1 -p message -e 32 -c 2 -a 0 -i 13 -k RTR
r -t 0.635611199 -s 21 -d -1 -p message -e 32 -c 2 -a 0 -i 13 -k RTR
+ -t 0.705637875 -s 21 -d -1 -p message -e 32 -c 2 -a 0 -i 14 -k RTR 
- -t 0.705637875 -s 21 -d -1 -p message -e 32 -c 2 -a 0 -i 14 -k RTR
h -t 0.705637875 -s 21 -d -1 -p message -e 32 -c 2 -a 0 -i 14 -k RTR
+ -t 0.706012875 -s 21 -d -1 -p message -e 90 -c 2 -a 0 -i 14 -k MAC 
- -t 0.706012875 -s 21 -d -1 -p message -e 90 -c 2 -a 0 -i 14 -k MAC
h -t 0.706012875 -s 21 -d -1 -p message -e 90 -c 2 -a 0 -i 14 -k MAC
r -t 0.706733297 -s 4 -d -1 -p message -e 32 -c 2 -a 0 -i 14 -k MAC
r -t 0.706733620 -s 1 -d -1 -p message -e 32 -c 2 -a 0 -i 14 -k MAC
r -t 0.706733886 -s 18 -d -1 -p message -e 32 -c 2 -a 0 -i 14 -k MAC
r -t 0.706734068 -s 6 -d -1 -p message -e 32 -c 2 -a 0 -i 14 -k MAC
r -t 0.706734073 -s 22 -d -1 -p message -e 32 -c 2 -a 0 -i 14 -k MAC
r -t 0.706758297 -s 4 -d -1 -p message -e 32 -c 2 -a 0 -i 14 -k RTR
r -t 0.706758620 -s 1 -d -1 -p message -e 32 -c 2 -a 0 -i 14 -k RTR
r -t 0.706758886 -s 18 -d -1 -p message -e 32 -c 2 -a 0 -i 14 -k RTR
r -t 0.706759068 -s 6 -d -1 -p message -e 32 -c 2 -a 0 -i 14 -k RTR
r -t 0.706759073 -s 22 -d -1 -p message -e 32 -c 2 -a 0 -i 14 -k RTR
+ -t 0.821435127 -s 23 -d -1 -p message -e 32 -c 2 -a 0 -i 15 -k RTR 
- -t 0.821435127 -s 23 -d -1 -p message -e 32 -c 2 -a 0 -i 15 -k RTR
h -t 0.821435127 -s 23 -d -1 -p message -e 32 -c 2 -a 0 -i 15 -k RTR
+ -t 0.821550127 -s 23 -d -1 -p message -e 90 -c 2 -a 0 -i 15 -k MAC 
- -t 0.821550127 -s 23 -d -1 -p message -e 90 -c 2 -a 0 -i 15 -k MAC
h -t 0.821550127 -s 23 -d -1 -p message -e 90 -c 2 -a 0 -i 15 -k MAC
r -t 0.822270127 -s 24 -d -1 -p message -e 32 -c 2 -a 0 -i 15 -k MAC
r -t 0.822270127 -s 25 -d -1 -p message -e 32 -c 2 -a 0 -i 15 -k MAC
r -t 0.822270127 -s 26 -d -1 -p message -e 32 -c 2 -a 0 -i 15 -k MAC
r -t 0.822270127 -s 27 -d -1 -p message -e 32 -c 2 -a 0 -i 15 -k MAC
r -t 0.822295127 -s 24 -d -1 -p message -e 32 -c 2 -a 0 -i 15 -k RTR
r -t 0.822295127 -s 25 -d -1 -p message -e 32 -c 2 -a 0 -i 15 -k RTR
r -t 0.822295127 -s 26 -d -1 -p message -e 32 -c 2 -a 0 -i 15 -k RTR
r -t 0.822295127 -s 27 -d -1 -p message -e 32 -c 2 -a 0 -i 15 -k RTR
+ -t 0.848147771 -s 17 -d -1 -p message -e 32 -c 2 -a 0 -i 16 -k RTR 
- -t 0.848147771 -s 17 -d -1 -p message -e 32 -c 2 -a 0 -i 16 -k RTR
h -t 0.848147771 -s 17 -d -1 -p message -e 32 -c 2 -a 0 -i 16 -k RTR
+ -t 0.848382771 -s 17 -d -1 -p message -e 90 -c 2 -a 0 -i 16 -k MAC 
- -t 0.848382771 -s 17 -d -1 -p message -e 90 -c 2 -a 0 -i 16 -k MAC
h -t 0.848382771 -s 17 -d -1 -p message -e 90 -c 2 -a 0 -i 16 -k MAC
r -t 0.849103182 -s 13 -d -1 -p message -e 32 -c 2 -a 0 -i 16 -k MAC
r -t 0.849103511 -s 0 -d -1 -p message -e 32 -c 2 -a 0 -i 16 -k MAC
r -t 0.849103806 -s 11 -d -1 -p message -e 32 -c 2 -a 0 -i 16 -k MAC
r -t 0.849103819 -s 19 -d -1 -p message -e 32 -c 2 -a 0 -i 16 -k MAC
r -t 0.849104010 -s 28 -d -1 -p message -e 32 -c 2 -a 0 -i 16 -k MAC
r -t 0.849128182 -s 13 -d -1 -p message -e 32 -c 2 -a 0 -i 16 -k RTR
r -t 0.849128511 -s 0 -d -1 -p message -e 32 -c 2 -a 0 -i 16 -k RTR
r -t 0.849128806 -s 11 -d -1 -p message -e 32 -c 2 -a 0 -i 16 -k RTR
r -t 0.849128819 -s 19 -d -1 -p message -e 32 -c 2 -a 0 -i 16 -k RTR
r -t 0.849129010 -s 28 -d -1 -p message -e 32 -c 2 -a 0 -i 16 -k RTR
+ -t 0.882674688 -s 4 -d -1 -p message -e 32 -c 2 -a 0 -i 17 -k RTR 
- -t 0.882674688 -s 4 -d -1 -p message -e 32 -c 2 -a 0 -i 17 -k RTR
h -t 0.882674688 -s 4 -d -1 -p message -e 32 -c 2 -a 0 -i 17 -k RTR
+ -t 0.882909688 -s 4 -d -1 -p message -e 90 -c 2 -a 0 -i 17 -k MAC 
- -t 0.882909688 -s 4 -d -1 -p message -e 90 -c 2 -a 0 -i 17 -k MAC
h -t 0.882909688 -s 4 -d -1 -p message -e 90 -c 2 -a 0 -i 17 -k MAC
r -t 0.883630110 -s 21 -d -1 -p message -e 32 -c 2 -a 0 -i 17 -k MAC
r -t 0.883630229 -s 1 -d -1 -p message -e 32 -c 2 -a 0 -i 17 -k MAC
r -t 0.883630495 -s 6 -d -1 -p message -e 32 -c 2 -a 0 -i 17 -k MAC
r -t 0.883630503 -s 22 -d -1 -p message -e 32 -c 2 -a 0 -i 17 -k MAC
r -t 0.883630663 -s 7 -d -1 -p message -e 32 -c 2 -a 0 -i 17 -k MAC
r -t 0.883630834 -s 18 -d -1 -p message -e 32 -c 2 -a 0 -i 17 -k MAC
r -t 0.883631009 -s 9 -d -1 -p message -e 32 -c 2 -a 0 -i 17 -k MAC
r -t 0.883655110 -s 21 -d -1 -p message -e 32 -c 2 -a 0 -i 17 -k RTR
r -t 0.883655229 -s 1 -d -1 -p message -e 32 -c 2 -a 0 -i 17 -k RTR
r -t 0.883655495 -s 6 -d -1 -p message -e 32 -c 2 -a 0 -i 17 -k RTR
r -t 0.883655503 -s 22 -d -1 -p message -e 32 -c 2 -a 0 -i 17 -k RTR
r -t 0.883655663 -s 7 -d -1 -p message -e 32 -c 2 -a 0 -i 17 -k RTR
r -t 0.883655834 -s 18 -d -1 -p message -e 32 -c 2 -a 0 -i 17 -k RTR
r -t 0.883656009 -s 9 -d -1 -p message -e 32 -c 2 -a 0 -i 17 -k RTR
+ -t 0.935449221 -s 25 -d -1 -p message -e 32 -c 2 -a 0 -i 18 -k RTR 
- -t 0.935449221 -s 25 -d -1 -p message -e 32 -c 2 -a 0 -i 18 -k RTR
h -t 0.935449221 -s 25 -d -1 -p message -e 32 -c 2 -a 0 -i 18 -k RTR
+ -t 0.935884221 -s 25 -d -1 -p message -e 90 -c 2 -a 0 -i 18 -k MAC 
- -t 0.935884221 -s 25 -d -1 -p message -e 90 -c 2 -a 0 -i 18 -k MAC
h -t 0.935884221 -s 25 -d -1 -p message -e 90 -c 2 -a 0 -i 18 -k MAC
r -t 0.936604221 -s 24 -d -1 -p message -e 32 -c 2 -a 0 -i 18 -k MAC
r -t 0.936604221 -s 23 -d -1 -p message -e 32 -c 2 -a 0 -i 18 -k MAC
r -t 0.936604221 -s 26 -d -1 -p message -e 32 -c 2 -a 0 -i 18 -k MAC
r -t 0.936604221 -s 27 -d -1 -p message -e 32 -c 2 -a 0 -i 18 -k MAC
r -t 0.936629221 -s 24 -d -1 -p message -e 32 -c 2 -a 0 -i 18 -k RTR
r -t 0.936629221 -s 23 -d -1 -p message -e 32 -c 2 -a 0 -i 18 -k RTR
r -t 0.936629221 -s 26 -d -1 -p message -e 32 -c 2 -a 0 -i 18 -k RTR
r -t 0.936629221 -s 27 -d -1 -p message -e 32 -c 2 -a 0 -i 18 -k RTR
+ -t 1.039009780 -s 24 -d -1 -p message -e 32 -c 2 -a 0 -i 19 -k RTR 
- -t 1.039009780 -s 24 -d -1 -p message -e 32 -c 2 -a 0 -i 19 -k RTR
h -t 1.039009780 -s 24 -d -1 -p message -e 32 -c 2 -a 0 -i 19 -k RTR
+ -t 1.039404780 -s 24 -d -1 -p message -e 90 -c 2 -a 0 -i 19 -k MAC 
- -t 1.039404780 -s 24 -d -1 -p message -e 90 -c 2 -a 0 -i 19 -k MAC
h -t 1.039404780 -s 24 -d -1 -p message -e 90 -c 2 -a 0 -i 19 -k MAC
r -t 1.040124780 -s 23 -d -1 -p message -e 32 -c 2 -a 0 -i 19 -k MAC
r -t 1.040124780 -s 25 -d -1 -p message -e 32 -c 2 -a 0 -i 19 -k MAC
r -t 1.040124780 -s 26 -d -1 -p message -e 32 -c 2 -a 0 -i 19 -k MAC
r -t 1.040124780 -s 27 -d -1 -p message -e 32 -c 2 -a 0 -i 19 -k MAC
r -t 1.040149780 -s 23 -d -1 -p message -e 32 -c 2 -a 0 -i 19 -k RTR
r -t 1.040149780 -s 25 -d -1 -p message -e 32 -c 2 -a 0 -i 19 -k RTR
r -t 1.040149780 -s 26 -d -1 -p message -e 32 -c 2 -a 0 -i 19 -k RTR
r -t 1.040149780 -s 27 -d -1 -p message -e 32 -c 2 -a 0 -i 19 -k RTR
+ -t 1.119657716 -s 1 -d -1 -p message -e 32 -c 2 -a 0 -i 20 -k RTR 
- -t 1.119657716 -s 1 -d -1 -p message -e 32 -c 2 -a 0 -i 20 -k RTR
h -t 1.119657716 -s 1 -d -1 -p message -e 32 -c 2 -a 0 -i 20 -k RTR
+ -t 1.119832716 -s 1 -d -1 -p message -e 90 -c 2 -a 0 -i 20 -k MAC 
- -t 1.119832716 -s 1 -d -1 -p message -e 90 -c 2 -a 0 -i 20 -k MAC
h -t 1.119832716 -s 1 -d -1 -p message -e 90 -c 2 -a 0 -i 20 -k MAC
r -t 1.120553257 -s 4 -d -1 -p message -e 32 -c 2 -a 0 -i 20 -k MAC
r -t 1.120553462 -s 21 -d -1 -p message -e 32 -c 2 -a 0 -i 20 -k MAC
r -t 1.120553522 -s 18 -d -1 -p message -e 32 -c 2 -a 0 -i 20 -k MAC
r -t 1.120553773 -s 9 -d -1 -p message -e 32 -c 2 -a 0 -i 20 -k MAC
r -t 1.120553824 -s 6 -d -1 -p message -e 32 -c 2 -a 0 -i 20 -k MAC
r -t 1.120553839 -s 22 -d -1 -p message -e 32 -c 2 -a 0 -i 20 -k MAC
r -t 1.120553850 -s 29 -d -1 -p message -e 32 -c 2 -a 0 -i 20 -k MAC
r -t 1.120553998 -s 7 -d -1 -p message -e 32 -c 2 -a 0 -i 20 -k MAC
r -t 1.120578257 -s 4 -d -1 -p message -e 32 -c 2 -a 0 -i 20 -k RTR
r -t 1.120578462 -s 21 -d -1 -p message -e 32 -c 2 -a 0 -i 20 -k RTR
r -t 1.120578522 -s 18 -d -1 -p message -e 32 -c 2 -a 0 -i 20 -k RTR
r -t 1.120578773 -s 9 -d -1 -p message -e 32 -c 2 -a 0 -i 20 -k RTR
r -t 1.120578824 -s 6 -d -1 -p message -e 32 -c 2 -a 0 -i 20 -k RTR
r -t 1.120578839 -s 22 -d -1 -p message -e 32 -c 2 -a 0 -i 20 -k RTR
r -t 1.120578850 -s 29 -d -1 -p message -e 32 -c 2 -a 0 -i 20 -k RTR
r -t 1.120578998 -s 7 -d -1 -p message -e 32 -c 2 -a 0 -i 20 -k RTR
+ -t 1.277890258 -s 9 -d -1 -p message -e 32 -c 2 -a 0 -i 21 -k RTR 
- -t 1.277890258 -s 9 -d -1 -p message -e 32 -c 2 -a 0 -i 21 -k RTR
h -t 1.277890258 -s 9 -d -1 -p message -e 32 -c 2 -a 0 -i 21 -k RTR
+ -t 1.278565258 -s 9 -d -1 -p message -e 90 -c 2 -a 0 -i 21 -k MAC 
- -t 1.278565258 -s 9 -d -1 -p message -e 90 -c 2 -a 0 -i 21 -k MAC
h -t 1.278565258 -s 9 -d -1 -p message -e 90 -c 2 -a 0 -i 21 -k MAC
r -t 1.279286315 -s 1 -d -1 -p message -e 32 -c 2 -a 0 -i 21 -k MAC
r -t 1.279286399 -s 6 -d -1 -p message -e 32 -c 2 -a 0 -i 21 -k MAC
r -t 1.279286417 -s 22 -d -1 -p message -e 32 -c 2 -a 0 -i 21 -k MAC
r -t 1.279286477 -s 20 -d -1 -p message -e 32 -c 2 -a 0 -i 21 -k MAC
r -t 1.279286484 -s 7 -d -1 -p message -e 32 -c 2 -a 0 -i 21 -k MAC
r -t 1.279286580 -s 4 -d -1 -p message -e 32 -c 2 -a 0 -i 21 -k MAC
r -t 1.279311315 -s 1 -d -1 -p message -e 32 -c 2 -a 0 -i 21 -k RTR
r -t 1.279311399 -s 6 -d -1 -p message -e 32 -c 2 -a 0 -i 21 -k RTR
r -t 1.279311417 -s 22 -d -1 -p message -e 32 -c 2 -a 0 -i 21 -k RTR
r -t 1.279311477 -s 20 -d -1 -p message -e 32 -c 2 -a 0 -i 21 -k RTR
r -t 1.279311484 -s 7 -d -1 -p message -e 32 -c 2 -a 0 -i 21 -k RTR
r -t 1.279311580 -s 4 -d -1 -p message -e 32 -c 2 -a 0 -i 21 -k RTR
+ -t 1.281327089 -s 14 -d -1 -p message -e 32 -c 2 -a 0 -i 22 -k RTR 
- -t 1.281327089 -s 14 -d -1 -p message -e 32 -c 2 -a 0 -i 22 -k RTR
h -t 1.281327089 -s 14 -d -1 -p message -e 32 -c 2 -a 0 -i 22 -k RTR
+ -t 1.281462089 -s 14 -d -1 -p message -e 90 -c 2 -a 0 -i 22 -k MAC 
- -t 1.281462089 -s 14 -d -1 -p message -e 90 -c 2 -a 0 -i 22 -k MAC
h -t 1.281462089 -s 14 -d -1 -p message -e 90 -c 2 -a 0 -i 22 -k MAC
r -t 1.282182503 -s 12 -d -1 -p message -e 32 -c 2 -a 0 -i 22 -k MAC
r -t 1.282182698 -s 10 -d -1 -p message -e 32 -c 2 -a 0 -i 22 -k MAC
r -t 1.282182737 -s 5 -d -1 -p message -e 32 -c 2 -a 0 -i 22 -k MAC
r -t 1.282183164 -s 15 -d -1 -p message -e 32 -c 2 -a 0 -i 22 -k MAC
r -t 1.282207503 -s 12 -d -1 -p message -e 32 -c 2 -a 0 -i 22 -k RTR
r -t 1.282207698 -s 10 -d -1 -p message -e 32 -c 2 -a 0 -i 22 -k RTR
r -t 1.282207737 -s 5 -d -1 -p message -e 32 -c 2 -a 0 -i 22 -k RTR
r -t 1.282208164 -s 15 -d -1 -p message -e 32 -c 2 -a 0 -i 22 -k RTR
+ -t 1.388842989 -s 26 -d -1 -p message -e 32 -c 2 -a 0 -i 23 -k RTR 
- -t 1.388842989 -s 26 -d -1 -p message -e 32 -c 2 -a 0 -i 23 -k RTR
h -t 1.388842989 -s 26 -d -1 -p message -e 32 -c 2 -a 0 -i 23 -k RTR
+ -t 1.389297989 -s 26 -d -1 -p message -e 90 -c 2 -a 0 -i 23 -k MAC 
- -t 1.389297989 -s 26 -d -1 -p message -e 90 -c 2 -a 0 -i 23 -k MAC
h -t 1.389297989 -s 26 -d -1 -p message -e 90 -c 2 -a 0 -i 23 -k MAC
r -t 1.390017989 -s 25 -d -1 -p message -e 32 -c 2 -a 0 -i 23 -k MAC
r -t 1.390017989 -s 24 -d -1 -p message -e 32 -c 2 -a 0 -i 23 -k MAC
r -t 1.390017989 -s 23 -d -1 -p message -e 32 -c 2 -a 0 -i 23 -k MAC
r -t 1.390017989 -s 27 -d -1 -p message -e 32 -c 2 -a 0 -i 23 -k MAC
r -t 1.390042989 -s 25 -d -1 -p message -e 32 -c 2 -a 0 -i 23 -k RTR
r -t 1.390042989 -s 24 -d -1 -p message -e 32 -c 2 -a 0 -i 23 -k RTR
r -t 1.390042989 -s 23 -d -1 -p message -e 32 -c 2 -a 0 -i 23 -k RTR
r -t 1.390042989 -s 27 -d -1 -p message -e 32 -c 2 -a 0 -i 23 -k RTR
+ -t 1.607278916 -s 5 -d -1 -p message -e 32 -c 2 -a 0 -i 24 -k RTR 