M 0.0 nn 30 x 1000 y 1000 rp DSDV
M 0.0 sc dsdv-update.tcl cp trafic seed 1.0
M 0.0 prop Propagation/TwoRayGround ant Antenna/OmniAntenna
M 0.00000 0 (377.60, 586.35, 0.00), (377.60, 586.35), 0.00
M 0.00000 1 (687.65, 851.81, 0.00), (687.65, 851.81), 0.00
M 0.00000 2 (393.65, 742.96, 0.00), (393.65, 742.96), 0.00
M 0.00000 3 (981.65, 792.61, 0.00), (981.65, 792.61), 0.00
M 0.00000 4 (978.35, 517.47, 0.00), (978.35, 517.47), 0.00
M 0.00000 5 (712.65, 880.35, 0.00), (712.65, 880.35), 0.00
M 0.00000 6 (141.13, 687.65, 0.00), (141.13, 687.65), 0.00
M 0.00000 7 (363.84, 981.65, 0.00), (363.84, 981.65), 0.00
M 0.00000 8 (381.92, 1.65, 0.00), (381.92, 1.65), 0.00
M 0.00000 9 (785.65, 431.85, 0.00), (785.65, 431.85), 0.00
M 0.00000 10 (640.92, 880.35, 0.00), (640.92, 880.35), 0.00
M 0.00000 11 (671.30, 390.35, 0.00), (671.30, 390.35), 0.00
M 0.00000 12 (105.89, 99.65, 0.00), (105.89, 99.65), 0.00
M 0.00000 13 (491.65, 812.12, 0.00), (491.65, 812.12), 0.00
M 0.00000 14 (978.35, 563.50, 0.00), (978.35, 563.50), 0.00
M 0.00000 15 (694.74, 785.65, 0.00), (694.74, 785.65), 0.00
M 0.00000 16 (491.65, 20.98, 0.00), (491.65, 20.98), 0.00
M 0.00000 17 (390.35, 918.46, 0.00), (390.35, 918.46), 0.00
M 0.00000 18 (197.65, 231.89, 0.00), (197.65, 231.89), 0.00
M 0.00000 19 (324.42, 488.35, 0.00), (324.42, 488.35), 0.00
M 0.00000 20 (368.46, 491.65, 0.00), (368.46, 491.65), 0.00
M 0.00000 21 (883.65, 349.52, 0.00), (883.65, 349.52), 0.00
M 0.00000 22 (978.35, 105.27, 0.00), (978.35, 105.27), 0.00
M 0.00000 23 (586.35, 949.03, 0.00), (586.35, 949.03), 0.00
M 0.00000 24 (728.88, 390.35, 0.00), (728.88, 390.35), 0.00
M 0.00000 25 (923.12, 99.65, 0.00), (923.12, 99.65), 0.00
M 0.00000 26 (197.65, 421.29, 0.00), (197.65, 421.29), 0.00
M 0.00000 27 (965.13, 589.65, 0.00), (965.13, 589.65), 0.00
M 0.00000 0 (377.60, 586.35, 0.00), (377.60, 586.35), 3.21
M 0.00000 1 (687.65, 851.81, 0.00), (687.65, 851.81), 16.49
s 0.003091411 _0_ RTR  --- 0 message 32 [0 0 0 0] ------- [0:255 -1:255 32 0] 
s 0.003466411 _0_ MAC  --- 0 message 90 [0 ffffffff 0 800] ------- [0:255 -1:255 32 0] 
r 0.004186728 _20_ MAC  --- 0 message 32 [0 ffffffff 0 800] ------- [0:255 -1:255 32 0] 
r 0.004186782 _19_ MAC  --- 0 message 32 [0 ffffffff 0 800] ------- [0:255 -1:255 32 0] 
r 0.004186935 _2_ MAC  --- 0 message 32 [0 ffffffff 0 800] ------- [0:255 -1:255 32 0] 
r 0.004187225 _26_ MAC  --- 0 message 32 [0 ffffffff 0 800] ------- [0:255 -1:255 32 0] 
r 0.004187254 _13_ MAC  --- 0 message 32 [0 ffffffff 0 800] ------- [0:255 -1:255 32 0] 
r 0.004187268 _6_ MAC  --- 0 message 32 [0 ffffffff 0 800] ------- [0:255 -1:255 32 0] 
r 0.004187519 _17_ MAC  --- 0 message 32 [0 ffffffff 0 800] ------- [0:255 -1:255 32 0] 
r 0.004187588 _11_ MAC  --- 0 message 32 [0 ffffffff 0 800] ------- [0:255 -1:255 32 0] 
r 0.004187659 _15_ MAC  --- 0 message 32 [0 ffffffff 0 800] ------- [0:255 -1:255 32 0] 
r 0.004187726 _10_ MAC  --- 0 message 32 [0 ffffffff 0 800] ------- [0:255 -1:255 32 0] 
r 0.004187729 _7_ MAC  --- 0 message 32 [0 ffffffff 0 800] ------- [0:255 -1:255 32 0] 
r 0.004187736 _18_ MAC  --- 0 message 32 [0 ffffffff 0 800] ------- [0:255 -1:255 32 0] 
r 0.004211728 _20_ RTR  --- 0 message 32 [0 ffffffff 0 800] ------- [0:255 -1:255 32 0] 
r 0.004211782 _19_ RTR  --- 0 message 32 [0 ffffffff 0 800] ------- [0:255 -1:255 32 0] 
r 0.004211935 _2_ RTR  --- 0 message 32 [0 ffffffff 0 800] ------- [0:255 -1:255 32 0] 
r 0.004212225 _26_ RTR  --- 0 message 32 [0 ffffffff 0 800] ------- [0:255 -1:255 32 0] 
r 0.004212254 _13_ RTR  --- 0 message 32 [0 ffffffff 0 800] ------- [0:255 -1:255 32 0] 
r 0.004212268 _6_ RTR  --- 0 message 32 [0 ffffffff 0 800] ------- [0:255 -1:255 32 0] 
r 0.004212519 _17_ RTR  --- 0 message 32 [0 ffffffff 0 800] ------- [0:255 -1:255 32 0] 
r 0.004212588 _11_ RTR  --- 0 message 32 [0 ffffffff 0 800] ------- [0:255 -1:255 32 0] 
r 0.004212659 _15_ RTR  --- 0 message 32 [0 ffffffff 0 800] ------- [0:255 -1:255 32 0] 
r 0.004212726 _10_ RTR  --- 0 message 32 [0 ffffffff 0 800] ------- [0:255 -1:255 32 0] 
r 0.004212729 _7_ RTR  --- 0 message 32 [0 ffffffff 0 800] ------- [0:255 -1:255 32 0] 
r 0.004212736 _18_ RTR  --- 0 message 32 [0 ffffffff 0 800] ------- [0:255 -1:255 32 0] 
s 0.037458776 _2_ RTR  --- 1 message 32 [0 0 0 0] ------- [2:255 -1:255 32 0] 
s 0.037813776 _2_ MAC  --- 1 message 90 [0 ffffffff 2 800] ------- [2:255 -1:255 32 0] 
r 0.038534176 _13_ MAC  --- 1 message 32 [0 ffffffff 2 800] ------- [2:255 -1:255 32 0] 
r 0.038534301 _0_ MAC  --- 1 message 32 [0 ffffffff 2 800] ------- [2:255 -1:255 32 0] 
r 0.038534361 _17_ MAC  --- 1 message 32 [0 ffffffff 2 800] ------- [2:255 -1:255 32 0] 
r 0.038534578 _7_ MAC  --- 1 message 32 [0 ffffffff 2 800] ------- [2:255 -1:255 32 0] 
r 0.038534618 _20_ MAC  --- 1 message 32 [0 ffffffff 2 800] ------- [2:255 -1:255 32 0] 
r 0.038534638 _6_ MAC  --- 1 message 32 [0 ffffffff 2 800] ------- [2:255 -1:255 32 0] 
r 0.038534656 _19_ MAC  --- 1 message 32 [0 ffffffff 2 800] ------- [2:255 -1:255 32 0] 
r 0.038534716 _23_ MAC  --- 1 message 32 [0 ffffffff 2 800] ------- [2:255 -1:255 32 0] 
r 0.038534719 _10_ MAC  --- 1 message 32 [0 ffffffff 2 800] ------- [2:255 -1:255 32 0] 
r 0.038534790 _15_ MAC  --- 1 message 32 [0 ffffffff 2 800] ------- [2:255 -1:255 32 0] 
r 0.038534821 _1_ MAC  --- 1 message 32 [0 ffffffff 2 800] ------- [2:255 -1:255 32 0] 
r 0.038534934 _5_ MAC  --- 1 message 32 [0 ffffffff 2 800] ------- [2:255 -1:255 32 0] 
r 0.038535032 _26_ MAC  --- 1 message 32 [0 ffffffff 2 800] ------- [2:255 -1:255 32 0] 
r 0.038559176 _13_ RTR  --- 1 message 32 [0 ffffffff 2 800] ------- [2:255 -1:255 32 0] 
r 0.038559301 _0_ RTR  --- 1 message 32 [0 ffffffff 2 800] ------- [2:255 -1:255 32 0] 
r 0.038559361 _17_ RTR  --- 1 message 32 [0 ffffffff 2 800] ------- [2:255 -1:255 32 0] 
r 0.038559578 _7_ RTR  --- 1 message 32 [0 ffffffff 2 800] ------- [2:255 -1:255 32 0] 
r 0.038559618 _20_ RTR  --- 1 message 32 [0 ffffffff 2 800] ------- [2:255 -1:255 32 0] 
r 0.038559638 _6_ RTR  --- 1 message 32 [0 ffffffff 2 800] ------- [2:255 -1:255 32 0] 
r 0.038559656 _19_ RTR  --- 1 message 32 [0 ffffffff 2 800] ------- [2:255 -1:255 32 0] 
r 0.038559716 _23_ RTR  --- 1 message 32 [0 ffffffff 2 800] ------- [2:255 -1:255 32 0] 
r 0.038559719 _10_ RTR  --- 1 message 32 [0 ffffffff 2 800] ------- [2:255 -1:255 32 0] 
r 0.038559790 _15_ RTR  --- 1 message 32 [0 ffffffff 2 800] ------- [2:255 -1:255 32 0] 
r 0.038559821 _1_ RTR  --- 1 message 32 [0 ffffffff 2 800] ------- [2:255 -1:255 32 0] 
r 0.038559934 _5_ RTR  --- 1 message 32 [0 ffffffff 2 800] ------- [2:255 -1:255 32 0] 
r 0.038560032 _26_ RTR  --- 1 message 32 [0 ffffffff 2 800] ------- [2:255 -1:255 32 0] 
s 0.087462768 _13_ RTR  --- 2 message 32 [0 0 0 0] ------- [13:255 -1:255 32 0] 
s 0.087757768 _13_ MAC  --- 2 message 90 [0 ffffffff d 800] ------- [13:255 -1:255 32 0] 
r 0.088478168 _2_ MAC  --- 2 message 32 [0 ffffffff d 800] ------- [13:255 -1:255 32 0] 
r 0.088478257 _17_ MAC  --- 2 message 32 [0 ffffffff d 800] ------- [13:255 -1:255 32 0] 
r 0.088478315 _10_ MAC  --- 2 message 32 [0 ffffffff d 800] ------- [13:255 -1:255 32 0] 
r 0.088478323 _23_ MAC  --- 2 message 32 [0 ffffffff d 800] ------- [13:255 -1:255 32 0] 
r 0.088478434 _1_ MAC  --- 2 message 32 [0 ffffffff d 800] ------- [13:255 -1:255 32 0] 
r 0.088478451 _15_ MAC  --- 2 message 32 [0 ffffffff d 800] ------- [13:255 -1:255 32 0] 
r 0.088478476 _7_ MAC  --- 2 message 32 [0 ffffffff d 800] ------- [13:255 -1:255 32 0] 
r 0.088478539 _5_ MAC  --- 2 message 32 [0 ffffffff d 800] ------- [13:255 -1:255 32 0] 
r 0.088478611 _0_ MAC  --- 2 message 32 [0 ffffffff d 800] ------- [13:255 -1:255 32 0] 
r 0.088478912 _20_ MAC  --- 2 message 32 [0 ffffffff d 800] ------- [13:255 -1:255 32 0] 
r 0.088478983 _19_ MAC  --- 2 message 32 [0 ffffffff d 800] ------- [13:255 -1:255 32 0] 
r 0.088479008 _6_ MAC  --- 2 message 32 [0 ffffffff d 800] ------- [13:255 -1:255 32 0] 
r 0.088503168 _2_ RTR  --- 2 message 32 [0 ffffffff d 800] ------- [13:255 -1:255 32 0] 
r 0.088503257 _17_ RTR  --- 2 message 32 [0 ffffffff d 800] ------- [13:255 -1:255 32 0] 
r 0.088503315 _10_ RTR  --- 2 message 32 [0 ffffffff d 800] ------- [13:255 -1:255 32 0] 
r 0.088503323 _23_ RTR  --- 2 message 32 [0 ffffffff d 800] ------- [13:255 -1:255 32 0] 
r 0.088503434 _1_ RTR  --- 2 message 32 [0 ffffffff d 800] ------- [13:255 -1:255 32 0] 
r 0.088503451 _15_ RTR  --- 2 message 32 [0 ffffffff d 800] ------- [13:255 -1:255 32 0] 
r 0.088503476 _7_ RTR  --- 2 message 32 [0 ffffffff d 800] ------- [13:255 -1:255 32 0] 
r 0.088503539 _5_ RTR  --- 2 message 32 [0 ffffffff d 800] ------- [13:255 -1:255 32 0] 
r 0.088503611 _0_ RTR  --- 2 message 32 [0 ffffffff d 800] ------- [13:255 -1:255 32 0] 
r 0.088503912 _20_ RTR  --- 2 message 32 [0 ffffffff d 800] ------- [13:255 -1:255 32 0] 
r 0.088503983 _19_ RTR  --- 2 message 32 [0 ffffffff d 800] ------- [13:255 -1:255 32 0] 
r 0.088504008 _6_ RTR  --- 2 message 32 [0 ffffffff d 800] ------- [13:255 -1:255 32 0] 
s 0.177365656 _3_ RTR  --- 3 message 32 [0 0 0 0] ------- [3:255 -1:255 32 0] 
s 0.177560656 _3_ MAC  --- 3 message 90 [0 ffffffff 3 800] ------- [3:255 -1:255 32 0] 
r 0.178281335 _27_ MAC  --- 3 message 32 [0 ffffffff 3 800] ------- [3:255 -1:255 32 0] 
r 0.178281420 _14_ MAC  --- 3 message 32 [0 ffffffff 3 800] ------- [3:255 -1:255 32 0] 
r 0.178281573 _4_ MAC  --- 3 message 32 [0 ffffffff 3 800] ------- [3:255 -1:255 32 0] 
r 0.178281599 _5_ MAC  --- 3 message 32 [0 ffffffff 3 800] ------- [3:255 -1:255 32 0] 
r 0.178281612 _15_ MAC  --- 3 message 32 [0 ffffffff 3 800] ------- [3:255 -1:255 32 0] 
r 0.178281655 _1_ MAC  --- 3 message 32 [0 ffffffff 3 800] ------- [3:255 -1:255 32 0] 
r 0.178281829 _10_ MAC  --- 3 message 32 [0 ffffffff 3 800] ------- [3:255 -1:255 32 0] 
r 0.178306335 _27_ RTR  --- 3 message 32 [0 ffffffff 3 800] ------- [3:255 -1:255 32 0] 
r 0.178306420 _14_ RTR  --- 3 message 32 [0 ffffffff 3 800] ------- [3:255 -1:255 32 0] 
r 0.178306573 _4_ RTR  --- 3 message 32 [0 ffffffff 3 800] ------- [3:255 -1:255 32 0] 
r 0.178306599 _5_ RTR  --- 3 message 32 [0 ffffffff 3 800] ------- [3:255 -1:255 32 0] 
r 0.178306612 _15_ RTR  --- 3 message 32 [0 ffffffff 3 800] ------- [3:255 -1:255 32 0] 
r 0.178306655 _1_ RTR  --- 3 message 32 [0 ffffffff 3 800] ------- [3:255 -1:255 32 0] 
r 0.178306829 _10_ RTR  --- 3 message 32 [0 ffffffff 3 800] ------- [3:255 -1:255 32 0] 
s 0.191634337 _19_ RTR  --- 4 message 32 [0 0 0 0] ------- [19:255 -1:255 32 0] 
s 0.191889337 _19_ MAC  --- 4 message 90 [0 ffffffff 13 800] ------- [19:255 -1:255 32 0] 
r 0.192609484 _20_ MAC  --- 4 message 32 [0 ffffffff 13 800] ------- [19:255 -1:255 32 0] 
r 0.192609708 _0_ MAC  --- 4 message 32 [0 ffffffff 13 800] ------- [19:255 -1:255 32 0] 
r 0.192609815 _26_ MAC  --- 4 message 32 [0 ffffffff 13 800] ------- [19:255 -1:255 32 0] 
r 0.192610216 _2_ MAC  --- 4 message 32 [0 ffffffff 13 800] ------- [19:255 -1:255 32 0] 
r 0.192610239 _6_ MAC  --- 4 message 32 [0 ffffffff 13 800] ------- [19:255 -1:255 32 0] 
r 0.192610290 _18_ MAC  --- 4 message 32 [0 ffffffff 13 800] ------- [19:255 -1:255 32 0] 
r 0.192610538 _11_ MAC  --- 4 message 32 [0 ffffffff 13 800] ------- [19:255 -1:255 32 0] 
r 0.192610551 _13_ MAC  --- 4 message 32 [0 ffffffff 13 800] ------- [19:255 -1:255 32 0] 
r 0.192634484 _20_ RTR  --- 4 message 32 [0 ffffffff 13 800] ------- [19:255 -1:255 32 0] 
r 0.192634708 _0_ RTR  --- 4 message 32 [0 ffffffff 13 800] ------- [19:255 -1:255 32 0] 
r 0.192634815 _26_ RTR  --- 4 message 32 [0 ffffffff 13 800] ------- [19:255 -1:255 32 0] 
r 0.192635216 _2_ RTR  --- 4 message 32 [0 ffffffff 13 800] ------- [19:255 -1:255 32 0] 
r 0.192635239 _6_ RTR  --- 4 message 32 [0 ffffffff 13 800] ------- [19:255 -1:255 32 0] 
r 0.192635290 _18_ RTR  --- 4 message 32 [0 ffffffff 13 800] ------- [19:255 -1:255 32 0] 
r 0.192635538 _11_ RTR  --- 4 message 32 [0 ffffffff 13 800] ------- [19:255 -1:255 32 0] 
r 0.192635551 _13_ RTR  --- 4 message 32 [0 ffffffff 13 800] ------- [19:255 -1:255 32 0] 
s 0.234603229 _15_ RTR  --- 5 message 32 [0 0 0 0] ------- [15:255 -1:255 32 0] 
s 0.234898229 _15_ MAC  --- 5 message 90 [0 ffffffff f 800] ------- [15:255 -1:255 32 0] 
r 0.235618451 _1_ MAC  --- 5 message 32 [0 ffffffff f 800] ------- [15:255 -1:255 32 0] 
r 0.235618551 _5_ MAC  --- 5 message 32 [0 ffffffff f 800] ------- [15:255 -1:255 32 0] 
r 0.235618593 _10_ MAC  --- 5 message 32 [0 ffffffff f 800] ------- [15:255 -1:255 32 0] 
r 0.235618883 _23_ MAC  --- 5 message 32 [0 ffffffff f 800] ------- [15:255 -1:255 32 0] 
r 0.235618912 _13_ MAC  --- 5 message 32 [0 ffffffff f 800] ------- [15:255 -1:255 32 0] 
r 0.235619186 _3_ MAC  --- 5 message 32 [0 ffffffff f 800] ------- [15:255 -1:255 32 0] 
r 0.235619243 _2_ MAC  --- 5 message 32 [0 ffffffff f 800] ------- [15:255 -1:255 32 0] 
r 0.235619336 _17_ MAC  --- 5 message 32 [0 ffffffff f 800] ------- [15:255 -1:255 32 0] 
r 0.235619343 _27_ MAC  --- 5 message 32 [0 ffffffff f 800] ------- [15:255 -1:255 32 0] 
r 0.235619430 _14_ MAC  --- 5 message 32 [0 ffffffff f 800] ------- [15:255 -1:255 32 0] 
r 0.235619447 _9_ MAC  --- 5 message 32 [0 ffffffff f 800] ------- [15:255 -1:255 32 0] 
r 0.235619478 _0_ MAC  --- 5 message 32 [0 ffffffff f 800] ------- [15:255 -1:255 32 0] 
r 0.235619511 _7_ MAC  --- 5 message 32 [0 ffffffff f 800] ------- [15:255 -1:255 32 0] 
r 0.235619531 _4_ MAC  --- 5 message 32 [0 ffffffff f 800] ------- [15:255 -1:255 32 0] 
r 0.235619549 _11_ MAC  --- 5 message 32 [0 ffffffff f 800] ------- [15:255 -1:255 32 0] 
r 0.235619552 _24_ MAC  --- 5 message 32 [0 ffffffff f 800] ------- [15:255 -1:255 32 0] 
r 0.235643451 _1_ RTR  --- 5 message 32 [0 ffffffff f 800] ------- [15:255 -1:255 32 0] 
r 0.235643551 _5_ RTR  --- 5 message 32 [0 ffffffff f 800] ------- [15:255 -1:255 32 0] 
r 0.235643593 _10_ RTR  --- 5 message 32 [0 ffffffff f 800] ------- [15:255 -1:255 32 0] 
r 0.235643883 _23_ RTR  --- 5 message 32 [0 ffffffff f 800] ------- [15:255 -1:255 32 0] 
r 0.235643912 _13_ RTR  --- 5 message 32 [0 ffffffff f 800] ------- [15:255 -1:255 32 0] 
r 0.235644186 _3_ RTR  --- 5 message 32 [0 ffffffff f 800] ------- [15:255 -1:255 32 0] 
r 0.235644243 _2_ RTR  --- 5 message 32 [0 ffffffff f 800] ------- [15:255 -1:255 32 0] 
r 0.235644336 _17_ RTR  --- 5 message 32 [0 ffffffff f 800] ------- [15:255 -1:255 32 0] 
r 0.235644343 _27_ RTR  --- 5 message 32 [0 ffffffff f 800] ------- [15:255 -1:255 32 0] 
r 0.235644430 _14_ RTR  --- 5 message 32 [0 ffffffff f 800] ------- [15:255 -1:255 32 0] 
r 0.235644447 _9_ RTR  --- 5 message 32 [0 ffffffff f 800] ------- [15:255 -1:255 32 0] 
r 0.235644478 _0_ RTR  --- 5 message 32 [0 ffffffff f 800] ------- [15:255 -1:255 32 0] 
r 0.235644511 _7_ RTR  --- 5 message 32 [0 ffffffff f 800] ------- [15:255 -1:255 32 0] 
r 0.235644531 _4_ RTR  --- 5 message 32 [0 ffffffff f 800] ------- [15:255 -1:255 32 0] 
r 0.235644549 _11_ RTR  --- 5 message 32 [0 ffffffff f 800] ------- [15:255 -1:255 32 0] 
r 0.235644552 _24_ RTR  --- 5 message 32 [0 ffffffff f 800] ------- [15:255 -1:255 32 0] 
s 0.333839210 _12_ RTR  --- 6 message 32 [0 0 0 0] ------- [12:255 -1:255 32 0] 
s 0.333994210 _12_ MAC  --- 6 message 90 [0 ffffffff c 800] ------- [12:255 -1:255 32 0] 
r 0.334714746 _18_ MAC  --- 6 message 32 [0 ffffffff c 800] ------- [12:255 -1:255 32 0] 
r 0.334715186 _8_ MAC  --- 6 message 32 [0 ffffffff c 800] ------- [12:255 -1:255 32 0] 
r 0.334715325 _26_ MAC  --- 6 message 32 [0 ffffffff c 800] ------- [12:255 -1:255 32 0] 
r 0.334715522 _16_ MAC  --- 6 message 32 [0 ffffffff c 800] ------- [12:255 -1:255 32 0] 
r 0.334739746 _18_ RTR  --- 6 message 32 [0 ffffffff c 800] ------- [12:255 -1:255 32 0] 
r 0.334740186 _8_ RTR  --- 6 message 32 [0 ffffffff c 800] ------- [12:255 -1:255 32 0] 
r 0.334740325 _26_ RTR  --- 6 message 32 [0 ffffffff c 800] ------- [12:255 -1:255 32 0] 
r 0.334740522 _16_ RTR  --- 6 message 32 [0 ffffffff c 800] ------- [12:255 -1:255 32 0] 
s 0.351472650 _18_ RTR  --- 7 message 32 [0 0 0 0] ------- [18:255 -1:255 32 0] 
s 0.351847650 _18_ MAC  --- 7 message 90 [0 ffffffff 12 800] ------- [18:255 -1:255 32 0] 
r 0.352568187 _12_ MAC  --- 7 message 32 [0 ffffffff 12 800] ------- [18:255 -1:255 32 0] 
r 0.352568282 _26_ MAC  --- 7 message 32 [0 ffffffff 12 800] ------- [18:255 -1:255 32 0] 
r 0.352568604 _19_ MAC  --- 7 message 32 [0 ffffffff 12 800] ------- [18:255 -1:255 32 0] 
r 0.352568633 _8_ MAC  --- 7 message 32 [0 ffffffff 12 800] ------- [18:255 -1:255 32 0] 
r 0.352568686 _20_ MAC  --- 7 message 32 [0 ffffffff 12 800] ------- [18:255 -1:255 32 0] 
r 0.352568856 _16_ MAC  --- 7 message 32 [0 ffffffff 12 800] ------- [18:255 -1:255 32 0] 
r 0.352568975 _0_ MAC  --- 7 message 32 [0 ffffffff 12 800] ------- [18:255 -1:255 32 0] 
r 0.352593187 _12_ RTR  --- 7 message 32 [0 ffffffff 12 800] ------- [18:255 -1:255 32 0] 
r 0.352593282 _26_ RTR  --- 7 message 32 [0 ffffffff 12 800] ------- [18:255 -1:255 32 0] 
r 0.352593604 _19_ RTR  --- 7 message 32 [0 ffffffff 12 800] ------- [18:255 -1:255 32 0] 
r 0.352593633 _8_ RTR  --- 7 message 32 [0 ffffffff 12 800] ------- [18:255 -1:255 32 0] 
r 0.352593686 _20_ RTR  --- 7 message 32 [0 ffffffff 12 800] ------- [18:255 -1:255 32 0] 
r 0.352593856 _16_ RTR  --- 7 message 32 [0 ffffffff 12 800] ------- [18:255 -1:255 32 0] 
r 0.352593975 _0_ RTR  --- 7 message 32 [0 ffffffff 12 800] ------- [18:255 -1:255 32 0] 
s 0.436386259 _29_ RTR  --- 8 message 32 [0 0 0 0] ------- [29:255 -1:255 32 0] 
s 0.436701259 _29_ MAC  --- 8 message 90 [0 ffffffff 1d 800] ------- [29:255 -1:255 32 0] 
r 0.437421617 _22_ MAC  --- 8 message 32 [0 ffffffff 1d 800] ------- [29:255 -1:255 32 0] 
r 0.437421679 _25_ MAC  --- 8 message 32 [0 ffffffff 1d 800] ------- [29:255 -1:255 32 0] 
r 0.437422487 _21_ MAC  --- 8 message 32 [0 ffffffff 1d 800] ------- [29:255 -1:255 32 0] 
r 0.437446617 _22_ RTR  --- 8 message 32 [0 ffffffff 1d 800] ------- [29:255 -1:255 32 0] 
r 0.437446679 _25_ RTR  --- 8 message 32 [0 ffffffff 1d 800] ------- [29:255 -1:255 32 0] 
r 0.437447487 _21_ RTR  --- 8 message 32 [0 ffffffff 1d 800] ------- [29:255 -1:255 32 0] 
s 0.470117073 _8_ RTR  --- 9 message 32 [0 0 0 0] ------- [8:255 -1:255 32 0] 
s 0.470652073 _8_ MAC  --- 9 message 90 [0 ffffffff 8 800] ------- [8:255 -1:255 32 0] 
r 0.471372444 _16_ MAC  --- 9 message 32 [0 ffffffff 8 800] ------- [8:255 -1:255 32 0] 
r 0.471373049 _12_ MAC  --- 9 message 32 [0 ffffffff 8 800] ------- [8:255 -1:255 32 0] 
r 0.471373056 _18_ MAC  --- 9 message 32 [0 ffffffff 8 800] ------- [8:255 -1:255 32 0] 
r 0.471397444 _16_ RTR  --- 9 message 32 [0 ffffffff 8 800] ------- [8:255 -1:255 32 0] 
r 0.471398049 _12_ RTR  --- 9 message 32 [0 ffffffff 8 800] ------- [8:255 -1:255 32 0] 
r 0.471398056 _18_ RTR  --- 9 message 32 [0 ffffffff 8 800] ------- [8:255 -1:255 32 0] 
s 0.521504883 _22_ RTR  --- 10 message 32 [0 0 0 0] ------- [22:255 -1:255 32 0] 
s 0.521659883 _22_ MAC  --- 10 message 90 [0 ffffffff 16 800] ------- [22:255 -1:255 32 0] 
r 0.522380068 _25_ MAC  --- 10 message 32 [0 ffffffff 16 800] ------- [22:255 -1:255 32 0] 
r 0.522380241 _29_ MAC  --- 10 message 32 [0 ffffffff 16 800] ------- [22:255 -1:255 32 0] 
r 0.522380756 _21_ MAC  --- 10 message 32 [0 ffffffff 16 800] ------- [22:255 -1:255 32 0] 
r 0.522381146 _24_ MAC  --- 10 message 32 [0 ffffffff 16 800] ------- [22:255 -1:255 32 0] 
r 0.522381147 _9_ MAC  --- 10 message 32 [0 ffffffff 16 800] ------- [22:255 -1:255 32 0] 
r 0.522405068 _25_ RTR  --- 10 message 32 [0 ffffffff 16 800] ------- [22:255 -1:255 32 0] 
r 0.522405241 _29_ RTR  --- 10 message 32 [0 ffffffff 16 800] ------- [22:255 -1:255 32 0] 
r 0.522405756 _21_ RTR  --- 10 message 32 [0 ffffffff 16 800] ------- [22:255 -1:255 32 0] 
r 0.522406146 _24_ RTR  --- 10 message 32 [0 ffffffff 16 800] ------- [22:255 -1:255 32 0] 
r 0.522406147 _9_ RTR  --- 10 message 32 [0 ffffffff 16 800] ------- [22:255 -1:255 32 0] 
s 0.556838879 _28_ AGT  --- 11 cbr 512 [0 0 0 0] ------- [28:0 29:0 32 0] [0] 0 0
r 0.556838879 _28_ RTR  --- 11 cbr 512 [0 0 0 0] ------- [28:0 29:0 32 0] [0] 0 0
s 0.627186592 _10_ RTR  --- 12 message 32 [0 0 0 0] ------- [10:255 -1:255 32 0] 
s 0.627321592 _10_ MAC  --- 12 message 90 [0 ffffffff a 800] ------- [10:255 -1:255 32 0] 
r 0.628041775 _1_ MAC  --- 12 message 32 [0 ffffffff a 800] ------- [10:255 -1:255 32 0] 
r 0.628041831 _5_ MAC  --- 12 message 32 [0 ffffffff a 800] ------- [10:255 -1:255 32 0] 
r 0.628041885 _23_ MAC  --- 12 message 32 [0 ffffffff a 800] ------- [10:255 -1:255 32 0] 
r 0.628041955 _15_ MAC  --- 12 message 32 [0 ffffffff a 800] ------- [10:255 -1:255 32 0] 
r 0.628042139 _13_ MAC  --- 12 message 32 [0 ffffffff a 800] ------- [10:255 -1:255 32 0] 
r 0.628042437 _17_ MAC  --- 12 message 32 [0 ffffffff a 800] ------- [10:255 -1:255 32 0] 
r 0.628042535 _2_ MAC  --- 12 message 32 [0 ffffffff a 800] ------- [10:255 -1:255 32 0] 
r 0.628042575 _7_ MAC  --- 12 message 32 [0 ffffffff a 800] ------- [10:255 -1:255 32 0] 
r 0.628042765 _3_ MAC  --- 12 message 32 [0 ffffffff a 800] ------- [10:255 -1:255 32 0] 
r 0.628042908 _0_ MAC  --- 12 message 32 [0 ffffffff a 800] ------- [10:255 -1:255 32 0] 
r 0.628066775 _1_ RTR  --- 12 message 32 [0 ffffffff a 800] ------- [10:255 -1:255 32 0] 
r 0.628066831 _5_ RTR  --- 12 message 32 [0 ffffffff a 800] ------- [10:255 -1:255 32 0] 
r 0.628066885 _23_ RTR  --- 12 message 32 [0 ffffffff a 800] ------- [10:255 -1:255 32 0] 
r 0.628066955 _15_ RTR  --- 12 message 32 [0 ffffffff a 800] ------- [10:255 -1:255 32 0] 
r 0.628067139 _13_ RTR  --- 12 message 32 [0 ffffffff a 800] ------- [10:255 -1:255 32 0] 
r 0.628067437 _17_ RTR  --- 12 message 32 [0 ffffffff a 800] ------- [10:255 -1:255 32 0] 
r 0.628067535 _2_ RTR  --- 12 message 32 [0 ffffffff a 800] ------- [10:255 -1:255 32 0] 
r 0.628067575 _7_ RTR  --- 12 message 32 [0 ffffffff a 800] ------- [10:255 -1:255 32 0] 
r 0.628067765 _3_ RTR  --- 12 message 32 [0 ffffffff a 800] ------- [10:255 -1:255 32 0] 
r 0.628067908 _0_ RTR  --- 12 message 32 [0 ffffffff a 800] ------- [10:255 -1:255 32 0] 
s 0.634670006 _6_ RTR  --- 13 message 32 [0 0 0 0] ------- [6:255 -1:255 32 0] 
s 0.634865006 _6_ MAC  --- 13 message 90 [0 ffffffff 6 800] ------- [6:255 -1:255 32 0] 
r 0.635585864 _0_ MAC  --- 13 message 32 [0 ffffffff 6 800] ------- [6:255 -1:255 32 0] 
r 0.635585868 _2_ MAC  --- 13 message 32 [0 ffffffff 6 800] ------- [6:255 -1:255 32 0] 
r 0.635585909 _19_ MAC  --- 13 message 32 [0 ffffffff 6 800] ------- [6:255 -1:255 32 0] 
r 0.635585914 _26_ MAC  --- 13 message 32 [0 ffffffff 6 800] ------- [6:255 -1:255 32 0] 
r 0.635586007 _20_ MAC  --- 13 message 32 [0 ffffffff 6 800] ------- [6:255 -1:255 32 0] 
r 0.635586139 _17_ MAC  --- 13 message 32 [0 ffffffff 6 800] ------- [6:255 -1:255 32 0] 
r 0.635586149 _28_ MAC  --- 13 message 32 [0 ffffffff 6 800] ------- [6:255 -1:255 32 0] 
r 0.635586236 _7_ MAC  --- 13 message 32 [0 ffffffff 6 800] ------- [6:255 -1:255 32 0] 
r 0.635586246 _13_ MAC  --- 13 message 32 [0 ffffffff 6 800] ------- [6:255 -1:255 32 0] 
r 0.635610864 _0_ RTR  --- 13 message 32 [0 ffffffff 6 800] ------- [6:255 -1:255 32 0] 
r 0.635610868 _2_ RTR  --- 13 message 32 [0 ffffffff 6 800] ------- [6:255 -1:255 32 0] 
r 0.635610909 _19_ RTR  --- 13 message 32 [0 ffffffff 6 800] ------- [6:255 -1:255 32 0] 
r 0.635610914 _26_ RTR  --- 13 message 32 [0 ffffffff 6 800] ------- [6:255 -1:255 32 0] 
r 0.635611007 _20_ RTR  --- 13 message 32 [0 ffffffff 6 800] ------- [6:255 -1:255 32 0] 
r 0.635611139 _17_ RTR  --- 13 message 32 [0 ffffffff 6 800] ------- [6:255 -1:255 32 0] 
r 0.635611149 _28_ RTR  --- 13 message 32 [0 ffffffff 6 800] ------- [6:255 -1:255 32 0] 
r 0.635611236 _7_ RTR  --- 13 message 32 [0 ffffffff 6 800] ------- [6:255 -1:255 32 0] 
r 0.635611246 _13_ RTR  --- 13 message 32 [0 ffffffff 6 800] ------- [6:255 -1:255 32 0] 
s 0.705637875 _21_ RTR  --- 14 message 32 [0 0 0 0] ------- [21:255 -1:255 32 0] 
s 0.706012875 _21_ MAC  --- 14 message 90 [0 ffffffff 15 800] ------- [21:255 -1:255 32 0] 
r 0.706733301 _9_ MAC  --- 14 message 32 [0 ffffffff 15 800] ------- [21:255 -1:255 32 0] 
r 0.706733408 _24_ MAC  --- 14 message 32 [0 ffffffff 15 800] ------- [21:255 -1:255 32 0] 
r 0.706733517 _4_ MAC  --- 14 message 32 [0 ffffffff 15 800] ------- [21:255 -1:255 32 0] 
r 0.706733595 _11_ MAC  --- 14 message 32 [0 ffffffff 15 800] ------- [21:255 -1:255 32 0] 
r 0.706733655 _14_ MAC  --- 14 message 32 [0 ffffffff 15 800] ------- [21:255 -1:255 32 0] 
r 0.706733718 _25_ MAC  --- 14 message 32 [0 ffffffff 15 800] ------- [21:255 -1:255 32 0] 
r 0.706733720 _27_ MAC  --- 14 message 32 [0 ffffffff 15 800] ------- [21:255 -1:255 32 0] 
r 0.706733748 _22_ MAC  --- 14 message 32 [0 ffffffff 15 800] ------- [21:255 -1:255 32 0] 
r 0.706734102 _29_ MAC  --- 14 message 32 [0 ffffffff 15 800] ------- [21:255 -1:255 32 0] 
r 0.706758301 _9_ RTR  --- 14 message 32 [0 ffffffff 15 800] ------- [21:255 -1:255 32 0] 
r 0.706758408 _24_ RTR  --- 14 message 32 [0 ffffffff 15 800] ------- [21:255 -1:255 32 0] 
r 0.706758517 _4_ RTR  --- 14 message 32 [0 ffffffff 15 800] ------- [21:255 -1:255 32 0] 
r 0.706758595 _11_ RTR  --- 14 message 32 [0 ffffffff 15 800] ------- [21:255 -1:255 32 0] 
r 0.706758655 _14_ RTR  --- 14 message 32 [0 ffffffff 15 800] ------- [21:255 -1:255 32 0] 
r 0.706758718 _25_ RTR  --- 14 message 32 [0 ffffffff 15 800] ------- [21:255 -1:255 32 0] 
r 0.706758720 _27_ RTR  --- 14 message 32 [0 ffffffff 15 800] ------- [21:255 -1:255 32 0] 
r 0.706758748 _22_ RTR  --- 14 message 32 [0 ffffffff 15 800] ------- [21:255 -1:255 32 0] 
r 0.706759102 _29_ RTR  --- 14 message 32 [0 ffffffff 15 800] ------- [21:255 -1:255 32 0] 
s 0.821435127 _23_ RTR  --- 15 message 32 [0 0 0 0] ------- [23:255 -1:255 32 0] 
s 0.821550127 _23_ MAC  --- 15 message 90 [0 ffffffff 17 800] ------- [23:255 -1:255 32 0] 
r 0.822270420 _10_ MAC  --- 15 message 32 [0 ffffffff 17 800] ------- [23:255 -1:255 32 0] 
r 0.822270595 _1_ MAC  --- 15 message 32 [0 ffffffff 17 800] ------- [23:255 -1:255 32 0] 
r 0.822270607 _5_ MAC  --- 15 message 32 [0 ffffffff 17 800] ------- [23:255 -1:255 32 0] 
r 0.822270682 _13_ MAC  --- 15 message 32 [0 ffffffff 17 800] ------- [23:255 -1:255 32 0] 
r 0.822270781 _15_ MAC  --- 15 message 32 [0 ffffffff 17 800] ------- [23:255 -1:255 32 0] 
r 0.822270789 _17_ MAC  --- 15 message 32 [0 ffffffff 17 800] ------- [23:255 -1:255 32 0] 
r 0.822270877 _7_ MAC  --- 15 message 32 [0 ffffffff 17 800] ------- [23:255 -1:255 32 0] 
r 0.822271068 _2_ MAC  --- 15 message 32 [0 ffffffff 17 800] ------- [23:255 -1:255 32 0] 
r 0.822295420 _10_ RTR  --- 15 message 32 [0 ffffffff 17 800] ------- [23:255 -1:255 32 0] 
r 0.822295595 _1_ RTR  --- 15 message 32 [0 ffffffff 17 800] ------- [23:255 -1:255 32 0] 
r 0.822295607 _5_ RTR  --- 15 message 32 [0 ffffffff 17 800] ------- [23:255 -1:255 32 0] 
r 0.822295682 _13_ RTR  --- 15 message 32 [0 ffffffff 17 800] ------- [23:255 -1:255 32 0] 
r 0.822295781 _15_ RTR  --- 15 message 32 [0 ffffffff 17 800] ------- [23:255 -1:255 32 0] 
r 0.822295789 _17_ RTR  --- 15 message 32 [0 ffffffff 17 800] ------- [23:255 -1:255 32 0] 
r 0.822295877 _7_ RTR  --- 15 message 32 [0 ffffffff 17 800] ------- [23:255 -1:255 32 0] 
r 0.822296068 _2_ RTR  --- 15 message 32 [0 ffffffff 17 800] ------- [23:255 -1:255 32 0] 
s 0.848147771 _17_ RTR  --- 16 message 32 [0 0 0 0] ------- [17:255 -1:255 32 0] 
s 0.848382771 _17_ MAC  --- 16 message 90 [0 ffffffff 11 800] ------- [17:255 -1:255 32 0] 
r 0.849103000 _7_ MAC  --- 16 message 32 [0 ffffffff 11 800] ------- [17:255 -1:255 32 0] 
r 0.849103261 _13_ MAC  --- 16 message 32 [0 ffffffff 11 800] ------- [17:255 -1:255 32 0] 
r 0.849103357 _2_ MAC  --- 16 message 32 [0 ffffffff 11 800] ------- [17:255 -1:255 32 0] 
r 0.849103433 _23_ MAC  --- 16 message 32 [0 ffffffff 11 800] ------- [17:255 -1:255 32 0] 
r 0.849103616 _10_ MAC  --- 16 message 32 [0 ffffffff 11 800] ------- [17:255 -1:255 32 0] 
r 0.849103787 _1_ MAC  --- 16 message 32 [0 ffffffff 11 800] ------- [17:255 -1:255 32 0] 
r 0.849103853 _5_ MAC  --- 16 message 32 [0 ffffffff 11 800] ------- [17:255 -1:255 32 0] 
r 0.849103879 _15_ MAC  --- 16 message 32 [0 ffffffff 11 800] ------- [17:255 -1:255 32 0] 
r 0.849103879 _0_ MAC  --- 16 message 32 [0 ffffffff 11 800] ------- [17:255 -1:255 32 0] 
r 0.849103904 _6_ MAC  --- 16 message 32 [0 ffffffff 11 800] ------- [17:255 -1:255 32 0] 
r 0.849104101 _28_ MAC  --- 16 message 32 [0 ffffffff 11 800] ------- [17:255 -1:255 32 0] 
r 0.849128000 _7_ RTR  --- 16 message 32 [0 ffffffff 11 800] ------- [17:255 -1:255 32 0] 
r 0.849128261 _13_ RTR  --- 16 message 32 [0 ffffffff 11 800] ------- [17:255 -1:255 32 0] 
r 0.849128357 _2_ RTR  --- 16 message 32 [0 ffffffff 11 800] ------- [17:255 -1:255 32 0] 
r 0.849128433 _23_ RTR  --- 16 message 32 [0 ffffffff 11 800] ------- [17:255 -1:255 32 0] 
r 0.849128616 _10_ RTR  --- 16 message 32 [0 ffffffff 11 800] ------- [17:255 -1:255 32 0] 
r 0.849128787 _1_ RTR  --- 16 message 32 [0 ffffffff 11 800] ------- [17:255 -1:255 32 0] 
r 0.849128853 _5_ RTR  --- 16 message 32 [0 ffffffff 11 800] ------- [17:255 -1:255 32 0] 
r 0.849128879 _15_ RTR  --- 16 message 32 [0 ffffffff 11 800] ------- [17:255 -1:255 32 0] 
r 0.849128879 _0_ RTR  --- 16 message 32 [0 ffffffff 11 800] ------- [17:255 -1:255 32 0] 
r 0.849128904 _6_ RTR  --- 16 message 32 [0 ffffffff 11 800] ------- [17:255 -1:255 32 0] 
r 0.849129101 _28_ RTR  --- 16 message 32 [0 ffffffff 11 800] ------- [17:255 -1:255 32 0] 
s 0.882674688 _4_ RTR  --- 17 message 32 [0 0 0 0] ------- [4:255 -1:255 32 0] 
s 0.882909688 _4_ MAC  --- 17 message 90 [0 ffffffff 4 800] ------- [4:255 -1:255 32 0] 
r 0.883629841 _14_ MAC  --- 17 message 32 [0 ffffffff 4 800] ------- [4:255 -1:255 32 0] 
r 0.883629932 _27_ MAC  --- 17 message 32 [0 ffffffff 4 800] ------- [4:255 -1:255 32 0] 
r 0.883630330 _21_ MAC  --- 17 message 32 [0 ffffffff 4 800] ------- [4:255 -1:255 32 0] 