M 0.0 nn 40 x 1700 y 1700 rp DSDV
M 0.0 sc dsdv-update.tcl cp trafic seed 1.0
M 0.0 prop Propagation/TwoRayGround ant Antenna/OmniAntenna
M 0.00000 0 (239.60, 1052.92, 0.00), (239.60, 1052.92), 0.00
M 0.00000 1 (804.55, 1079.67, 0.00), (804.55, 1079.67), 0.00
M 0.00000 2 (1082.78, 1315.54, 0.00), (1082.78, 1315.54), 0.00
M 0.00000 3 (576.29, 720.29, 0.00), (576.29, 720.29), 0.00
M 0.00000 4 (391.68, 304.78, 0.00), (391.68, 304.78), 0.00
M 0.00000 5 (972.37, 990.03, 0.00), (972.37, 990.03), 0.00
M 0.00000 6 (952.18, 101.71, 0.00), (952.18, 101.71), 0.00
M 0.00000 7 (92.85, 688.27, 0.00), (92.85, 688.27), 0.00
M 0.00000 8 (115.25, 714.67, 0.00), (115.25, 714.67), 0.00
M 0.00000 9 (1047.73, 150.02, 0.00), (1047.73, 150.02), 0.00
M 0.00000 10 (1048.34, 214.52, 0.00), (1048.34, 214.52), 0.00
M 0.00000 11 (783.55, 1119.07, 0.00), (783.55, 1119.07), 0.00
M 0.00000 12 (372.75, 486.57, 0.00), (372.75, 486.57), 0.00
M 0.00000 13 (779.25, 1136.99, 0.00), (779.25, 1136.99), 0.00
M 0.00000 14 (1079.76, 300.33, 0.00), (1079.76, 300.33), 0.00
M 0.00000 15 (451.04, 987.97, 0.00), (451.04, 987.97), 0.00
M 0.00000 16 (521.96, 1144.15, 0.00), (521.96, 1144.15), 0.00
M 0.00000 17 (618.47, 634.19, 0.00), (618.47, 634.19), 0.00
M 0.00000 18 (861.98, 949.51, 0.00), (861.98, 949.51), 0.00
M 0.00000 19 (602.36, 662.07, 0.00), (602.36, 662.07), 0.00
M 0.00000 20 (1272.06, 512.99, 0.00), (1272.06, 512.99), 0.00
M 0.00000 21 (910.74, 842.06, 0.00), (910.74, 842.06), 0.00
M 0.00000 22 (367.36, 664.26, 0.00), (367.36, 664.26), 0.00
M 0.00000 23 (241.51, 1050.18, 0.00), (241.51, 1050.18), 0.00
M 0.00000 24 (1167.89, 749.37, 0.00), (1167.89, 749.37), 0.00
M 0.00000 25 (1340.54, 934.67, 0.00), (1340.54, 934.67), 0.00
M 0.00000 26 (600.34, 278.75, 0.00), (600.34, 278.75), 0.00
M 0.00000 27 (487.34, 291.39, 0.00), (487.34, 291.39), 0.00
M 0.00000 28 (178.59, 295.29, 0.00), (178.59, 295.29), 0.00
M 0.00000 29 (540.60, 796.00, 0.00), (540.60, 796.00), 0.00
M 0.00000 30 (625.25, 894.49, 0.00), (625.25, 894.49), 0.00
M 0.00000 31 (1150.04, 1360.29, 0.00), (1150.04, 1360.29), 0.00
M 0.00000 32 (741.96, 1291.83, 0.00), (741.96, 1291.83), 0.00
M 0.00000 33 (758.44, 890.75, 0.00), (758.44, 890.75), 0.00
M 0.00000 0 (239.60, 1052.92, 0.00), (239.60, 1052.92), 45.46
M 0.00000 1 (804.55, 1079.67, 0.00), (804.55, 1079.67), 28.92
s 0.010141804 _0_ RTR  --- 0 message 32 [0 0 0 0] ------- [0:255 -1:255 32 0] 
s 0.010796804 _0_ MAC  --- 0 message 90 [0 ffffffff 0 800] ------- [0:255 -1:255 32 0] 
r 0.011516815 _23_ MAC  --- 0 message 32 [0 ffffffff 0 800] ------- [0:255 -1:255 32 0] 
r 0.011517541 _15_ MAC  --- 0 message 32 [0 ffffffff 0 800] ------- [0:255 -1:255 32 0] 
r 0.011517622 _38_ MAC  --- 0 message 32 [0 ffffffff 0 800] ------- [0:255 -1:255 32 0] 
r 0.011517793 _16_ MAC  --- 0 message 32 [0 ffffffff 0 800] ------- [0:255 -1:255 32 0] 
r 0.011518005 _8_ MAC  --- 0 message 32 [0 ffffffff 0 800] ------- [0:255 -1:255 32 0] 
r 0.011518114 _7_ MAC  --- 0 message 32 [0 ffffffff 0 800] ------- [0:255 -1:255 32 0] 
r 0.011518123 _29_ MAC  --- 0 message 32 [0 ffffffff 0 800] ------- [0:255 -1:255 32 0] 
r 0.011541815 _23_ RTR  --- 0 message 32 [0 ffffffff 0 800] ------- [0:255 -1:255 32 0] 
r 0.011542541 _15_ RTR  --- 0 message 32 [0 ffffffff 0 800] ------- [0:255 -1:255 32 0] 
r 0.011542622 _38_ RTR  --- 0 message 32 [0 ffffffff 0 800] ------- [0:255 -1:255 32 0] 
r 0.011542793 _16_ RTR  --- 0 message 32 [0 ffffffff 0 800] ------- [0:255 -1:255 32 0] 
r 0.011543005 _8_ RTR  --- 0 message 32 [0 ffffffff 0 800] ------- [0:255 -1:255 32 0] 
r 0.011543114 _7_ RTR  --- 0 message 32 [0 ffffffff 0 800] ------- [0:255 -1:255 32 0] 
r 0.011543123 _29_ RTR  --- 0 message 32 [0 ffffffff 0 800] ------- [0:255 -1:255 32 0] 
s 0.028517405 _2_ RTR  --- 1 message 32 [0 0 0 0] ------- [2:255 -1:255 32 0] 
s 0.029092405 _2_ MAC  --- 1 message 90 [0 ffffffff 2 800] ------- [2:255 -1:255 32 0] 
r 0.029812674 _31_ MAC  --- 1 message 32 [0 ffffffff 2 800] ------- [2:255 -1:255 32 0] 
r 0.029813544 _32_ MAC  --- 1 message 32 [0 ffffffff 2 800] ------- [2:255 -1:255 32 0] 
r 0.029813550 _5_ MAC  --- 1 message 32 [0 ffffffff 2 800] ------- [2:255 -1:255 32 0] 
r 0.029813579 _13_ MAC  --- 1 message 32 [0 ffffffff 2 800] ------- [2:255 -1:255 32 0] 
r 0.029813598 _11_ MAC  --- 1 message 32 [0 ffffffff 2 800] ------- [2:255 -1:255 32 0] 
r 0.029813621 _1_ MAC  --- 1 message 32 [0 ffffffff 2 800] ------- [2:255 -1:255 32 0] 
r 0.029837674 _31_ RTR  --- 1 message 32 [0 ffffffff 2 800] ------- [2:255 -1:255 32 0] 
r 0.029838544 _32_ RTR  --- 1 message 32 [0 ffffffff 2 800] ------- [2:255 -1:255 32 0] 
r 0.029838550 _5_ RTR  --- 1 message 32 [0 ffffffff 2 800] ------- [2:255 -1:255 32 0] 
r 0.029838579 _13_ RTR  --- 1 message 32 [0 ffffffff 2 800] ------- [2:255 -1:255 32 0] 
r 0.029838598 _11_ RTR  --- 1 message 32 [0 ffffffff 2 800] ------- [2:255 -1:255 32 0] 
r 0.029838621 _1_ RTR  --- 1 message 32 [0 ffffffff 2 800] ------- [2:255 -1:255 32 0] 
s 0.092275354 _13_ RTR  --- 2 message 32 [0 0 0 0] ------- [13:255 -1:255 32 0] 
s 0.092830354 _13_ MAC  --- 2 message 90 [0 ffffffff d 800] ------- [13:255 -1:255 32 0] 
r 0.093550416 _11_ MAC  --- 2 message 32 [0 ffffffff d 800] ------- [13:255 -1:255 32 0] 
r 0.093550563 _1_ MAC  --- 2 message 32 [0 ffffffff d 800] ------- [13:255 -1:255 32 0] 
r 0.093550885 _32_ MAC  --- 2 message 32 [0 ffffffff d 800] ------- [13:255 -1:255 32 0] 
r 0.093551037 _18_ MAC  --- 2 message 32 [0 ffffffff d 800] ------- [13:255 -1:255 32 0] 
r 0.093551163 _5_ MAC  --- 2 message 32 [0 ffffffff d 800] ------- [13:255 -1:255 32 0] 
r 0.093551178 _33_ MAC  --- 2 message 32 [0 ffffffff d 800] ------- [13:255 -1:255 32 0] 
r 0.093551212 _16_ MAC  --- 2 message 32 [0 ffffffff d 800] ------- [13:255 -1:255 32 0] 
r 0.093551312 _30_ MAC  --- 2 message 32 [0 ffffffff d 800] ------- [13:255 -1:255 32 0] 
r 0.093551431 _21_ MAC  --- 2 message 32 [0 ffffffff d 800] ------- [13:255 -1:255 32 0] 
r 0.093551528 _2_ MAC  --- 2 message 32 [0 ffffffff d 800] ------- [13:255 -1:255 32 0] 
r 0.093551556 _15_ MAC  --- 2 message 32 [0 ffffffff d 800] ------- [13:255 -1:255 32 0] 
r 0.093575416 _11_ RTR  --- 2 message 32 [0 ffffffff d 800] ------- [13:255 -1:255 32 0] 
r 0.093575563 _1_ RTR  --- 2 message 32 [0 ffffffff d 800] ------- [13:255 -1:255 32 0] 
r 0.093575885 _32_ RTR  --- 2 message 32 [0 ffffffff d 800] ------- [13:255 -1:255 32 0] 
r 0.093576037 _18_ RTR  --- 2 message 32 [0 ffffffff d 800] ------- [13:255 -1:255 32 0] 
r 0.093576163 _5_ RTR  --- 2 message 32 [0 ffffffff d 800] ------- [13:255 -1:255 32 0] 
r 0.093576178 _33_ RTR  --- 2 message 32 [0 ffffffff d 800] ------- [13:255 -1:255 32 0] 
r 0.093576212 _16_ RTR  --- 2 message 32 [0 ffffffff d 800] ------- [13:255 -1:255 32 0] 
r 0.093576312 _30_ RTR  --- 2 message 32 [0 ffffffff d 800] ------- [13:255 -1:255 32 0] 
r 0.093576431 _21_ RTR  --- 2 message 32 [0 ffffffff d 800] ------- [13:255 -1:255 32 0] 
r 0.093576528 _2_ RTR  --- 2 message 32 [0 ffffffff d 800] ------- [13:255 -1:255 32 0] 
r 0.093576556 _15_ RTR  --- 2 message 32 [0 ffffffff d 800] ------- [13:255 -1:255 32 0] 
s 0.185011899 _3_ RTR  --- 3 message 32 [0 0 0 0] ------- [3:255 -1:255 32 0] 
s 0.185246899 _3_ MAC  --- 3 message 90 [0 ffffffff 3 800] ------- [3:255 -1:255 32 0] 
r 0.185967112 _19_ MAC  --- 3 message 32 [0 ffffffff 3 800] ------- [3:255 -1:255 32 0] 
r 0.185967178 _29_ MAC  --- 3 message 32 [0 ffffffff 3 800] ------- [3:255 -1:255 32 0] 
r 0.185967219 _17_ MAC  --- 3 message 32 [0 ffffffff 3 800] ------- [3:255 -1:255 32 0] 
r 0.185967503 _30_ MAC  --- 3 message 32 [0 ffffffff 3 800] ------- [3:255 -1:255 32 0] 
r 0.185967620 _22_ MAC  --- 3 message 32 [0 ffffffff 3 800] ------- [3:255 -1:255 32 0] 
r 0.185967731 _33_ MAC  --- 3 message 32 [0 ffffffff 3 800] ------- [3:255 -1:255 32 0] 
r 0.185967884 _15_ MAC  --- 3 message 32 [0 ffffffff 3 800] ------- [3:255 -1:255 32 0] 
r 0.185967932 _12_ MAC  --- 3 message 32 [0 ffffffff 3 800] ------- [3:255 -1:255 32 0] 
r 0.185968086 _21_ MAC  --- 3 message 32 [0 ffffffff 3 800] ------- [3:255 -1:255 32 0] 
r 0.185968120 _18_ MAC  --- 3 message 32 [0 ffffffff 3 800] ------- [3:255 -1:255 32 0] 
r 0.185992112 _19_ RTR  --- 3 message 32 [0 ffffffff 3 800] ------- [3:255 -1:255 32 0] 
r 0.185992178 _29_ RTR  --- 3 message 32 [0 ffffffff 3 800] ------- [3:255 -1:255 32 0] 
r 0.185992219 _17_ RTR  --- 3 message 32 [0 ffffffff 3 800] ------- [3:255 -1:255 32 0] 
r 0.185992503 _30_ RTR  --- 3 message 32 [0 ffffffff 3 800] ------- [3:255 -1:255 32 0] 
r 0.185992620 _22_ RTR  --- 3 message 32 [0 ffffffff 3 800] ------- [3:255 -1:255 32 0] 
r 0.185992731 _33_ RTR  --- 3 message 32 [0 ffffffff 3 800] ------- [3:255 -1:255 32 0] 
r 0.185992884 _15_ RTR  --- 3 message 32 [0 ffffffff 3 800] ------- [3:255 -1:255 32 0] 
r 0.185992932 _12_ RTR  --- 3 message 32 [0 ffffffff 3 800] ------- [3:255 -1:255 32 0] 
r 0.185993086 _21_ RTR  --- 3 message 32 [0 ffffffff 3 800] ------- [3:255 -1:255 32 0] 
r 0.185993120 _18_ RTR  --- 3 message 32 [0 ffffffff 3 800] ------- [3:255 -1:255 32 0] 
s 0.188553284 _19_ RTR  --- 4 message 32 [0 0 0 0] ------- [19:255 -1:255 32 0] 
s 0.188628284 _19_ MAC  --- 4 message 90 [0 ffffffff 13 800] ------- [19:255 -1:255 32 0] 
r 0.189348391 _17_ MAC  --- 4 message 32 [0 ffffffff 13 800] ------- [19:255 -1:255 32 0] 
r 0.189348496 _3_ MAC  --- 4 message 32 [0 ffffffff 13 800] ------- [19:255 -1:255 32 0] 
r 0.189348775 _29_ MAC  --- 4 message 32 [0 ffffffff 13 800] ------- [19:255 -1:255 32 0] 
r 0.189349062 _30_ MAC  --- 4 message 32 [0 ffffffff 13 800] ------- [19:255 -1:255 32 0] 
r 0.189349067 _22_ MAC  --- 4 message 32 [0 ffffffff 13 800] ------- [19:255 -1:255 32 0] 
r 0.189349207 _33_ MAC  --- 4 message 32 [0 ffffffff 13 800] ------- [19:255 -1:255 32 0] 
r 0.189349247 _12_ MAC  --- 4 message 32 [0 ffffffff 13 800] ------- [19:255 -1:255 32 0] 
r 0.189349474 _21_ MAC  --- 4 message 32 [0 ffffffff 13 800] ------- [19:255 -1:255 32 0] 
r 0.189349482 _15_ MAC  --- 4 message 32 [0 ffffffff 13 800] ------- [19:255 -1:255 32 0] 
r 0.189349562 _26_ MAC  --- 4 message 32 [0 ffffffff 13 800] ------- [19:255 -1:255 32 0] 
r 0.189349575 _18_ MAC  --- 4 message 32 [0 ffffffff 13 800] ------- [19:255 -1:255 32 0] 
r 0.189349578 _27_ MAC  --- 4 message 32 [0 ffffffff 13 800] ------- [19:255 -1:255 32 0] 
r 0.189373391 _17_ RTR  --- 4 message 32 [0 ffffffff 13 800] ------- [19:255 -1:255 32 0] 
r 0.189373496 _3_ RTR  --- 4 message 32 [0 ffffffff 13 800] ------- [19:255 -1:255 32 0] 
r 0.189373775 _29_ RTR  --- 4 message 32 [0 ffffffff 13 800] ------- [19:255 -1:255 32 0] 
r 0.189374062 _30_ RTR  --- 4 message 32 [0 ffffffff 13 800] ------- [19:255 -1:255 32 0] 
r 0.189374067 _22_ RTR  --- 4 message 32 [0 ffffffff 13 800] ------- [19:255 -1:255 32 0] 
r 0.189374207 _33_ RTR  --- 4 message 32 [0 ffffffff 13 800] ------- [19:255 -1:255 32 0] 
r 0.189374247 _12_ RTR  --- 4 message 32 [0 ffffffff 13 800] ------- [19:255 -1:255 32 0] 
r 0.189374474 _21_ RTR  --- 4 message 32 [0 ffffffff 13 800] ------- [19:255 -1:255 32 0] 
r 0.189374482 _15_ RTR  --- 4 message 32 [0 ffffffff 13 800] ------- [19:255 -1:255 32 0] 
r 0.189374562 _26_ RTR  --- 4 message 32 [0 ffffffff 13 800] ------- [19:255 -1:255 32 0] 
r 0.189374575 _18_ RTR  --- 4 message 32 [0 ffffffff 13 800] ------- [19:255 -1:255 32 0] 
r 0.189374578 _27_ RTR  --- 4 message 32 [0 ffffffff 13 800] ------- [19:255 -1:255 32 0] 
s 0.227865106 _36_ RTR  --- 5 message 32 [0 0 0 0] ------- [36:255 -1:255 32 0] 
s 0.228180106 _36_ MAC  --- 5 message 90 [0 ffffffff 24 800] ------- [36:255 -1:255 32 0] 
r 0.228900106 _35_ MAC  --- 5 message 32 [0 ffffffff 24 800] ------- [36:255 -1:255 32 0] 
r 0.228900106 _34_ MAC  --- 5 message 32 [0 ffffffff 24 800] ------- [36:255 -1:255 32 0] 
r 0.228900106 _37_ MAC  --- 5 message 32 [0 ffffffff 24 800] ------- [36:255 -1:255 32 0] 
r 0.228901256 _28_ MAC  --- 5 message 32 [0 ffffffff 24 800] ------- [36:255 -1:255 32 0] 
r 0.228925106 _35_ RTR  --- 5 message 32 [0 ffffffff 24 800] ------- [36:255 -1:255 32 0] 
r 0.228925106 _34_ RTR  --- 5 message 32 [0 ffffffff 24 800] ------- [36:255 -1:255 32 0] 
r 0.228925106 _37_ RTR  --- 5 message 32 [0 ffffffff 24 800] ------- [36:255 -1:255 32 0] 
r 0.228926256 _28_ RTR  --- 5 message 32 [0 ffffffff 24 800] ------- [36:255 -1:255 32 0] 
s 0.229683837 _15_ RTR  --- 6 message 32 [0 0 0 0] ------- [15:255 -1:255 32 0] 
s 0.230058837 _15_ MAC  --- 6 message 90 [0 ffffffff f 800] ------- [15:255 -1:255 32 0] 
r 0.230779409 _16_ MAC  --- 6 message 32 [0 ffffffff f 800] ------- [15:255 -1:255 32 0] 
r 0.230779496 _30_ MAC  --- 6 message 32 [0 ffffffff f 800] ------- [15:255 -1:255 32 0] 
r 0.230779544 _29_ MAC  --- 6 message 32 [0 ffffffff f 800] ------- [15:255 -1:255 32 0] 
r 0.230779566 _23_ MAC  --- 6 message 32 [0 ffffffff f 800] ------- [15:255 -1:255 32 0] 
r 0.230779575 _0_ MAC  --- 6 message 32 [0 ffffffff f 800] ------- [15:255 -1:255 32 0] 
r 0.230779823 _3_ MAC  --- 6 message 32 [0 ffffffff f 800] ------- [15:255 -1:255 32 0] 
r 0.230779912 _33_ MAC  --- 6 message 32 [0 ffffffff f 800] ------- [15:255 -1:255 32 0] 
r 0.230779952 _22_ MAC  --- 6 message 32 [0 ffffffff f 800] ------- [15:255 -1:255 32 0] 
r 0.230780029 _11_ MAC  --- 6 message 32 [0 ffffffff f 800] ------- [15:255 -1:255 32 0] 
r 0.230780035 _19_ MAC  --- 6 message 32 [0 ffffffff f 800] ------- [15:255 -1:255 32 0] 
r 0.230780039 _13_ MAC  --- 6 message 32 [0 ffffffff f 800] ------- [15:255 -1:255 32 0] 
r 0.230780055 _1_ MAC  --- 6 message 32 [0 ffffffff f 800] ------- [15:255 -1:255 32 0] 
r 0.230780142 _17_ MAC  --- 6 message 32 [0 ffffffff f 800] ------- [15:255 -1:255 32 0] 
r 0.230804409 _16_ RTR  --- 6 message 32 [0 ffffffff f 800] ------- [15:255 -1:255 32 0] 
r 0.230804496 _30_ RTR  --- 6 message 32 [0 ffffffff f 800] ------- [15:255 -1:255 32 0] 
r 0.230804544 _29_ RTR  --- 6 message 32 [0 ffffffff f 800] ------- [15:255 -1:255 32 0] 
r 0.230804566 _23_ RTR  --- 6 message 32 [0 ffffffff f 800] ------- [15:255 -1:255 32 0] 
r 0.230804575 _0_ RTR  --- 6 message 32 [0 ffffffff f 800] ------- [15:255 -1:255 32 0] 
r 0.230804823 _3_ RTR  --- 6 message 32 [0 ffffffff f 800] ------- [15:255 -1:255 32 0] 
r 0.230804912 _33_ RTR  --- 6 message 32 [0 ffffffff f 800] ------- [15:255 -1:255 32 0] 
r 0.230804952 _22_ RTR  --- 6 message 32 [0 ffffffff f 800] ------- [15:255 -1:255 32 0] 
r 0.230805029 _11_ RTR  --- 6 message 32 [0 ffffffff f 800] ------- [15:255 -1:255 32 0] 
r 0.230805035 _19_ RTR  --- 6 message 32 [0 ffffffff f 800] ------- [15:255 -1:255 32 0] 
r 0.230805039 _13_ RTR  --- 6 message 32 [0 ffffffff f 800] ------- [15:255 -1:255 32 0] 
r 0.230805055 _1_ RTR  --- 6 message 32 [0 ffffffff f 800] ------- [15:255 -1:255 32 0] 
r 0.230805142 _17_ RTR  --- 6 message 32 [0 ffffffff f 800] ------- [15:255 -1:255 32 0] 
s 0.328792147 _12_ RTR  --- 7 message 32 [0 0 0 0] ------- [12:255 -1:255 32 0] 
s 0.329067147 _12_ MAC  --- 7 message 90 [0 ffffffff c 800] ------- [12:255 -1:255 32 0] 
r 0.329787740 _22_ MAC  --- 7 message 32 [0 ffffffff c 800] ------- [12:255 -1:255 32 0] 
r 0.329787756 _4_ MAC  --- 7 message 32 [0 ffffffff c 800] ------- [12:255 -1:255 32 0] 
r 0.329787902 _27_ MAC  --- 7 message 32 [0 ffffffff c 800] ------- [12:255 -1:255 32 0] 
r 0.329788056 _28_ MAC  --- 7 message 32 [0 ffffffff c 800] ------- [12:255 -1:255 32 0] 
r 0.329788103 _17_ MAC  --- 7 message 32 [0 ffffffff c 800] ------- [12:255 -1:255 32 0] 
r 0.329788111 _19_ MAC  --- 7 message 32 [0 ffffffff c 800] ------- [12:255 -1:255 32 0] 
r 0.329788175 _26_ MAC  --- 7 message 32 [0 ffffffff c 800] ------- [12:255 -1:255 32 0] 
r 0.329788180 _3_ MAC  --- 7 message 32 [0 ffffffff c 800] ------- [12:255 -1:255 32 0] 
r 0.329788294 _8_ MAC  --- 7 message 32 [0 ffffffff c 800] ------- [12:255 -1:255 32 0] 
r 0.329788297 _7_ MAC  --- 7 message 32 [0 ffffffff c 800] ------- [12:255 -1:255 32 0] 
r 0.329788321 _29_ MAC  --- 7 message 32 [0 ffffffff c 800] ------- [12:255 -1:255 32 0] 
r 0.329812740 _22_ RTR  --- 7 message 32 [0 ffffffff c 800] ------- [12:255 -1:255 32 0] 
r 0.329812756 _4_ RTR  --- 7 message 32 [0 ffffffff c 800] ------- [12:255 -1:255 32 0] 
r 0.329812902 _27_ RTR  --- 7 message 32 [0 ffffffff c 800] ------- [12:255 -1:255 32 0] 
r 0.329813056 _28_ RTR  --- 7 message 32 [0 ffffffff c 800] ------- [12:255 -1:255 32 0] 
r 0.329813103 _17_ RTR  --- 7 message 32 [0 ffffffff c 800] ------- [12:255 -1:255 32 0] 
r 0.329813111 _19_ RTR  --- 7 message 32 [0 ffffffff c 800] ------- [12:255 -1:255 32 0] 
r 0.329813175 _26_ RTR  --- 7 message 32 [0 ffffffff c 800] ------- [12:255 -1:255 32 0] 
r 0.329813180 _3_ RTR  --- 7 message 32 [0 ffffffff c 800] ------- [12:255 -1:255 32 0] 
r 0.329813294 _8_ RTR  --- 7 message 32 [0 ffffffff c 800] ------- [12:255 -1:255 32 0] 
r 0.329813297 _7_ RTR  --- 7 message 32 [0 ffffffff c 800] ------- [12:255 -1:255 32 0] 
r 0.329813321 _29_ RTR  --- 7 message 32 [0 ffffffff c 800] ------- [12:255 -1:255 32 0] 
s 0.353822708 _18_ RTR  --- 8 message 32 [0 0 0 0] ------- [18:255 -1:255 32 0] 
s 0.354097708 _18_ MAC  --- 8 message 90 [0 ffffffff 12 800] ------- [18:255 -1:255 32 0] 
r 0.354818100 _5_ MAC  --- 8 message 32 [0 ffffffff 12 800] ------- [18:255 -1:255 32 0] 
r 0.354818101 _21_ MAC  --- 8 message 32 [0 ffffffff 12 800] ------- [18:255 -1:255 32 0] 
r 0.354818105 _33_ MAC  --- 8 message 32 [0 ffffffff 12 800] ------- [18:255 -1:255 32 0] 
r 0.354818182 _1_ MAC  --- 8 message 32 [0 ffffffff 12 800] ------- [18:255 -1:255 32 0] 
r 0.354818331 _11_ MAC  --- 8 message 32 [0 ffffffff 12 800] ------- [18:255 -1:255 32 0] 
r 0.354818391 _13_ MAC  --- 8 message 32 [0 ffffffff 12 800] ------- [18:255 -1:255 32 0] 
r 0.354818518 _30_ MAC  --- 8 message 32 [0 ffffffff 12 800] ------- [18:255 -1:255 32 0] 
r 0.354818895 _29_ MAC  --- 8 message 32 [0 ffffffff 12 800] ------- [18:255 -1:255 32 0] 
r 0.354818917 _32_ MAC  --- 8 message 32 [0 ffffffff 12 800] ------- [18:255 -1:255 32 0] 
r 0.354818927 _24_ MAC  --- 8 message 32 [0 ffffffff 12 800] ------- [18:255 -1:255 32 0] 
r 0.354818929 _3_ MAC  --- 8 message 32 [0 ffffffff 12 800] ------- [18:255 -1:255 32 0] 
r 0.354818999 _19_ MAC  --- 8 message 32 [0 ffffffff 12 800] ------- [18:255 -1:255 32 0] 
r 0.354819014 _16_ MAC  --- 8 message 32 [0 ffffffff 12 800] ------- [18:255 -1:255 32 0] 
r 0.354819036 _17_ MAC  --- 8 message 32 [0 ffffffff 12 800] ------- [18:255 -1:255 32 0] 
r 0.354843100 _5_ RTR  --- 8 message 32 [0 ffffffff 12 800] ------- [18:255 -1:255 32 0] 
r 0.354843101 _21_ RTR  --- 8 message 32 [0 ffffffff 12 800] ------- [18:255 -1:255 32 0] 
r 0.354843105 _33_ RTR  --- 8 message 32 [0 ffffffff 12 800] ------- [18:255 -1:255 32 0] 
r 0.354843182 _1_ RTR  --- 8 message 32 [0 ffffffff 12 800] ------- [18:255 -1:255 32 0] 
r 0.354843331 _11_ RTR  --- 8 message 32 [0 ffffffff 12 800] ------- [18:255 -1:255 32 0] 
r 0.354843391 _13_ RTR  --- 8 message 32 [0 ffffffff 12 800] ------- [18:255 -1:255 32 0] 
r 0.354843518 _30_ RTR  --- 8 message 32 [0 ffffffff 12 800] ------- [18:255 -1:255 32 0] 
r 0.354843895 _29_ RTR  --- 8 message 32 [0 ffffffff 12 800] ------- [18:255 -1:255 32 0] 
r 0.354843917 _32_ RTR  --- 8 message 32 [0 ffffffff 12 800] ------- [18:255 -1:255 32 0] 
r 0.354843927 _24_ RTR  --- 8 message 32 [0 ffffffff 12 800] ------- [18:255 -1:255 32 0] 
r 0.354843929 _3_ RTR  --- 8 message 32 [0 ffffffff 12 800] ------- [18:255 -1:255 32 0] 
r 0.354843999 _19_ RTR  --- 8 message 32 [0 ffffffff 12 800] ------- [18:255 -1:255 32 0] 
r 0.354844014 _16_ RTR  --- 8 message 32 [0 ffffffff 12 800] ------- [18:255 -1:255 32 0] 
r 0.354844036 _17_ RTR  --- 8 message 32 [0 ffffffff 12 800] ------- [18:255 -1:255 32 0] 
s 0.382010901 _38_ RTR  --- 9 message 32 [0 0 0 0] ------- [38:255 -1:255 32 0] 
s 0.382205901 _38_ MAC  --- 9 message 90 [0 ffffffff 26 800] ------- [38:255 -1:255 32 0] 
r 0.382926719 _0_ MAC  --- 9 message 32 [0 ffffffff 26 800] ------- [38:255 -1:255 32 0] 
r 0.382926724 _23_ MAC  --- 9 message 32 [0 ffffffff 26 800] ------- [38:255 -1:255 32 0] 
r 0.382926927 _8_ MAC  --- 9 message 32 [0 ffffffff 26 800] ------- [38:255 -1:255 32 0] 
r 0.382926986 _7_ MAC  --- 9 message 32 [0 ffffffff 26 800] ------- [38:255 -1:255 32 0] 
r 0.382951719 _0_ RTR  --- 9 message 32 [0 ffffffff 26 800] ------- [38:255 -1:255 32 0] 
r 0.382951724 _23_ RTR  --- 9 message 32 [0 ffffffff 26 800] ------- [38:255 -1:255 32 0] 
r 0.382951927 _8_ RTR  --- 9 message 32 [0 ffffffff 26 800] ------- [38:255 -1:255 32 0] 
r 0.382951986 _7_ RTR  --- 9 message 32 [0 ffffffff 26 800] ------- [38:255 -1:255 32 0] 
s 0.442339037 _29_ RTR  --- 10 message 32 [0 0 0 0] ------- [29:255 -1:255 32 0] 
s 0.443014037 _29_ MAC  --- 10 message 90 [0 ffffffff 1d 800] ------- [29:255 -1:255 32 0] 
r 0.443734316 _3_ MAC  --- 10 message 32 [0 ffffffff 1d 800] ------- [29:255 -1:255 32 0] 
r 0.443734470 _30_ MAC  --- 10 message 32 [0 ffffffff 1d 800] ------- [29:255 -1:255 32 0] 
r 0.443734529 _19_ MAC  --- 10 message 32 [0 ffffffff 1d 800] ------- [29:255 -1:255 32 0] 
r 0.443734636 _17_ MAC  --- 10 message 32 [0 ffffffff 1d 800] ------- [29:255 -1:255 32 0] 
r 0.443734744 _15_ MAC  --- 10 message 32 [0 ffffffff 1d 800] ------- [29:255 -1:255 32 0] 
r 0.443734763 _22_ MAC  --- 10 message 32 [0 ffffffff 1d 800] ------- [29:255 -1:255 32 0] 
r 0.443734829 _33_ MAC  --- 10 message 32 [0 ffffffff 1d 800] ------- [29:255 -1:255 32 0] 
r 0.443735200 _16_ MAC  --- 10 message 32 [0 ffffffff 1d 800] ------- [29:255 -1:255 32 0] 
r 0.443735211 _12_ MAC  --- 10 message 32 [0 ffffffff 1d 800] ------- [29:255 -1:255 32 0] 
r 0.443735225 _18_ MAC  --- 10 message 32 [0 ffffffff 1d 800] ------- [29:255 -1:255 32 0] 
r 0.443735281 _21_ MAC  --- 10 message 32 [0 ffffffff 1d 800] ------- [29:255 -1:255 32 0] 
r 0.443735329 _1_ MAC  --- 10 message 32 [0 ffffffff 1d 800] ------- [29:255 -1:255 32 0] 
r 0.443735346 _23_ MAC  --- 10 message 32 [0 ffffffff 1d 800] ------- [29:255 -1:255 32 0] 
r 0.443735357 _0_ MAC  --- 10 message 32 [0 ffffffff 1d 800] ------- [29:255 -1:255 32 0] 
r 0.443759316 _3_ RTR  --- 10 message 32 [0 ffffffff 1d 800] ------- [29:255 -1:255 32 0] 
r 0.443759470 _30_ RTR  --- 10 message 32 [0 ffffffff 1d 800] ------- [29:255 -1:255 32 0] 
r 0.443759529 _19_ RTR  --- 10 message 32 [0 ffffffff 1d 800] ------- [29:255 -1:255 32 0] 
r 0.443759636 _17_ RTR  --- 10 message 32 [0 ffffffff 1d 800] ------- [29:255 -1:255 32 0] 
r 0.443759744 _15_ RTR  --- 10 message 32 [0 ffffffff 1d 800] ------- [29:255 -1:255 32 0] 
r 0.443759763 _22_ RTR  --- 10 message 32 [0 ffffffff 1d 800] ------- [29:255 -1:255 32 0] 
r 0.443759829 _33_ RTR  --- 10 message 32 [0 ffffffff 1d 800] ------- [29:255 -1:255 32 0] 
r 0.443760200 _16_ RTR  --- 10 message 32 [0 ffffffff 1d 800] ------- [29:255 -1:255 32 0] 
r 0.443760211 _12_ RTR  --- 10 message 32 [0 ffffffff 1d 800] ------- [29:255 -1:255 32 0] 
r 0.443760225 _18_ RTR  --- 10 message 32 [0 ffffffff 1d 800] ------- [29:255 -1:255 32 0] 
r 0.443760281 _21_ RTR  --- 10 message 32 [0 ffffffff 1d 800] ------- [29:255 -1:255 32 0] 
r 0.443760329 _1_ RTR  --- 10 message 32 [0 ffffffff 1d 800] ------- [29:255 -1:255 32 0] 
r 0.443760346 _23_ RTR  --- 10 message 32 [0 ffffffff 1d 800] ------- [29:255 -1:255 32 0] 
r 0.443760357 _0_ RTR  --- 10 message 32 [0 ffffffff 1d 800] ------- [29:255 -1:255 32 0] 
s 0.477041254 _8_ RTR  --- 11 message 32 [0 0 0 0] ------- [8:255 -1:255 32 0] 
s 0.477416254 _8_ MAC  --- 11 message 90 [0 ffffffff 8 800] ------- [8:255 -1:255 32 0] 
r 0.478136370 _7_ MAC  --- 11 message 32 [0 ffffffff 8 800] ------- [8:255 -1:255 32 0] 
r 0.478137111 _22_ MAC  --- 11 message 32 [0 ffffffff 8 800] ------- [8:255 -1:255 32 0] 
r 0.478137280 _38_ MAC  --- 11 message 32 [0 ffffffff 8 800] ------- [8:255 -1:255 32 0] 
r 0.478137401 _12_ MAC  --- 11 message 32 [0 ffffffff 8 800] ------- [8:255 -1:255 32 0] 
r 0.478137449 _23_ MAC  --- 11 message 32 [0 ffffffff 8 800] ------- [8:255 -1:255 32 0] 
r 0.478137455 _0_ MAC  --- 11 message 32 [0 ffffffff 8 800] ------- [8:255 -1:255 32 0] 
r 0.478161370 _7_ RTR  --- 11 message 32 [0 ffffffff 8 800] ------- [8:255 -1:255 32 0] 
r 0.478162111 _22_ RTR  --- 11 message 32 [0 ffffffff 8 800] ------- [8:255 -1:255 32 0] 
r 0.478162280 _38_ RTR  --- 11 message 32 [0 ffffffff 8 800] ------- [8:255 -1:255 32 0] 
r 0.478162401 _12_ RTR  --- 11 message 32 [0 ffffffff 8 800] ------- [8:255 -1:255 32 0] 
r 0.478162449 _23_ RTR  --- 11 message 32 [0 ffffffff 8 800] ------- [8:255 -1:255 32 0] 
r 0.478162455 _0_ RTR  --- 11 message 32 [0 ffffffff 8 800] ------- [8:255 -1:255 32 0] 
s 0.487912486 _30_ RTR  --- 12 message 32 [0 0 0 0] ------- [30:255 -1:255 32 0] 
s 0.488567486 _30_ MAC  --- 12 message 90 [0 ffffffff 1e 800] ------- [30:255 -1:255 32 0] 
r 0.489287919 _29_ MAC  --- 12 message 32 [0 ffffffff 1e 800] ------- [30:255 -1:255 32 0] 
r 0.489287930 _33_ MAC  --- 12 message 32 [0 ffffffff 1e 800] ------- [30:255 -1:255 32 0] 
r 0.489288089 _3_ MAC  --- 12 message 32 [0 ffffffff 1e 800] ------- [30:255 -1:255 32 0] 
r 0.489288145 _15_ MAC  --- 12 message 32 [0 ffffffff 1e 800] ------- [30:255 -1:255 32 0] 
r 0.489288265 _19_ MAC  --- 12 message 32 [0 ffffffff 1e 800] ------- [30:255 -1:255 32 0] 
r 0.489288296 _18_ MAC  --- 12 message 32 [0 ffffffff 1e 800] ------- [30:255 -1:255 32 0] 
r 0.489288345 _1_ MAC  --- 12 message 32 [0 ffffffff 1e 800] ------- [30:255 -1:255 32 0] 
r 0.489288354 _17_ MAC  --- 12 message 32 [0 ffffffff 1e 800] ------- [30:255 -1:255 32 0] 
r 0.489288387 _16_ MAC  --- 12 message 32 [0 ffffffff 1e 800] ------- [30:255 -1:255 32 0] 
r 0.489288402 _11_ MAC  --- 12 message 32 [0 ffffffff 1e 800] ------- [30:255 -1:255 32 0] 
r 0.489288444 _13_ MAC  --- 12 message 32 [0 ffffffff 1e 800] ------- [30:255 -1:255 32 0] 
r 0.489288454 _21_ MAC  --- 12 message 32 [0 ffffffff 1e 800] ------- [30:255 -1:255 32 0] 
r 0.489288639 _22_ MAC  --- 12 message 32 [0 ffffffff 1e 800] ------- [30:255 -1:255 32 0] 
r 0.489288686 _5_ MAC  --- 12 message 32 [0 ffffffff 1e 800] ------- [30:255 -1:255 32 0] 
r 0.489312919 _29_ RTR  --- 12 message 32 [0 ffffffff 1e 800] ------- [30:255 -1:255 32 0] 
r 0.489312930 _33_ RTR  --- 12 message 32 [0 ffffffff 1e 800] ------- [30:255 -1:255 32 0] 
r 0.489313089 _3_ RTR  --- 12 message 32 [0 ffffffff 1e 800] ------- [30:255 -1:255 32 0] 
r 0.489313145 _15_ RTR  --- 12 message 32 [0 ffffffff 1e 800] ------- [30:255 -1:255 32 0] 
r 0.489313265 _19_ RTR  --- 12 message 32 [0 ffffffff 1e 800] ------- [30:255 -1:255 32 0] 
r 0.489313296 _18_ RTR  --- 12 message 32 [0 ffffffff 1e 800] ------- [30:255 -1:255 32 0] 
r 0.489313345 _1_ RTR  --- 12 message 32 [0 ffffffff 1e 800] ------- [30:255 -1:255 32 0] 
r 0.489313354 _17_ RTR  --- 12 message 32 [0 ffffffff 1e 800] ------- [30:255 -1:255 32 0] 
r 0.489313387 _16_ RTR  --- 12 message 32 [0 ffffffff 1e 800] ------- [30:255 -1:255 32 0] 
r 0.489313402 _11_ RTR  --- 12 message 32 [0 ffffffff 1e 800] ------- [30:255 -1:255 32 0] 
r 0.489313444 _13_ RTR  --- 12 message 32 [0 ffffffff 1e 800] ------- [30:255 -1:255 32 0] 
r 0.489313454 _21_ RTR  --- 12 message 32 [0 ffffffff 1e 800] ------- [30:255 -1:255 32 0] 
r 0.489313639 _22_ RTR  --- 12 message 32 [0 ffffffff 1e 800] ------- [30:255 -1:255 32 0] 
r 0.489313686 _5_ RTR  --- 12 message 32 [0 ffffffff 1e 800] ------- [30:255 -1:255 32 0] 
s 0.519498042 _22_ RTR  --- 13 message 32 [0 0 0 0] ------- [22:255 -1:255 32 0] 
s 0.520013042 _22_ MAC  --- 13 message 90 [0 ffffffff 16 800] ------- [22:255 -1:255 32 0] 
r 0.520733634 _12_ MAC  --- 13 message 32 [0 ffffffff 16 800] ------- [22:255 -1:255 32 0] 
r 0.520733763 _3_ MAC  --- 13 message 32 [0 ffffffff 16 800] ------- [22:255 -1:255 32 0] 
r 0.520733767 _29_ MAC  --- 13 message 32 [0 ffffffff 16 800] ------- [22:255 -1:255 32 0] 
r 0.520733825 _19_ MAC  --- 13 message 32 [0 ffffffff 16 800] ------- [22:255 -1:255 32 0] 
r 0.520733885 _17_ MAC  --- 13 message 32 [0 ffffffff 16 800] ------- [22:255 -1:255 32 0] 
r 0.520733899 _8_ MAC  --- 13 message 32 [0 ffffffff 16 800] ------- [22:255 -1:255 32 0] 
r 0.520733960 _7_ MAC  --- 13 message 32 [0 ffffffff 16 800] ------- [22:255 -1:255 32 0] 
r 0.520734156 _15_ MAC  --- 13 message 32 [0 ffffffff 16 800] ------- [22:255 -1:255 32 0] 
r 0.520734194 _30_ MAC  --- 13 message 32 [0 ffffffff 16 800] ------- [22:255 -1:255 32 0] 
r 0.520734243 _4_ MAC  --- 13 message 32 [0 ffffffff 16 800] ------- [22:255 -1:255 32 0] 
r 0.520734348 _27_ MAC  --- 13 message 32 [0 ffffffff 16 800] ------- [22:255 -1:255 32 0] 
r 0.520758634 _12_ RTR  --- 13 message 32 [0 ffffffff 16 800] ------- [22:255 -1:255 32 0] 
r 0.520758763 _3_ RTR  --- 13 message 32 [0 ffffffff 16 800] ------- [22:255 -1:255 32 0] 
r 0.520758767 _29_ RTR  --- 13 message 32 [0 ffffffff 16 800] ------- [22:255 -1:255 32 0] 
r 0.520758825 _19_ RTR  --- 13 message 32 [0 ffffffff 16 800] ------- [22:255 -1:255 32 0] 
r 0.520758885 _17_ RTR  --- 13 message 32 [0 ffffffff 16 800] ------- [22:255 -1:255 32 0] 
r 0.520758899 _8_ RTR  --- 13 message 32 [0 ffffffff 16 800] ------- [22:255 -1:255 32 0] 
r 0.520758960 _7_ RTR  --- 13 message 32 [0 ffffffff 16 800] ------- [22:255 -1:255 32 0] 
r 0.520759156 _15_ RTR  --- 13 message 32 [0 ffffffff 16 800] ------- [22:255 -1:255 32 0] 
r 0.520759194 _30_ RTR  --- 13 message 32 [0 ffffffff 16 800] ------- [22:255 -1:255 32 0] 
r 0.520759243 _4_ RTR  --- 13 message 32 [0 ffffffff 16 800] ------- [22:255 -1:255 32 0] 
r 0.520759348 _27_ RTR  --- 13 message 32 [0 ffffffff 16 800] ------- [22:255 -1:255 32 0] 
s 0.556838879 _38_ AGT  --- 14 cbr 512 [0 0 0 0] ------- [38:0 39:0 32 0] [0] 0 0
r 0.556838879 _38_ RTR  --- 14 cbr 512 [0 0 0 0] ------- [38:0 39:0 32 0] [0] 0 0
s 0.621208005 _10_ RTR  --- 15 message 32 [0 0 0 0] ------- [10:255 -1:255 32 0] 
s 0.621283005 _10_ MAC  --- 15 message 90 [0 ffffffff a 800] ------- [10:255 -1:255 32 0] 
r 0.622003220 _9_ MAC  --- 15 message 32 [0 ffffffff a 800] ------- [10:255 -1:255 32 0] 