M 0.0 nn 40 x 1000 y 1000 rp DSDV
M 0.0 sc dsdv-update.tcl cp trafic seed 1.0
M 0.0 prop Propagation/TwoRayGround ant Antenna/OmniAntenna
M 0.00000 0 (83.44, 1.65, 0.00), (83.44, 1.65), 0.00
M 0.00000 1 (324.19, 883.65, 0.00), (324.19, 883.65), 0.00
M 0.00000 2 (923.04, 785.65, 0.00), (923.04, 785.65), 0.00
M 0.00000 3 (302.61, 390.35, 0.00), (302.61, 390.35), 0.00
M 0.00000 4 (96.35, 811.47, 0.00), (96.35, 811.47), 0.00
M 0.00000 5 (463.35, 197.65, 0.00), (463.35, 197.65), 0.00
M 0.00000 6 (491.65, 740.87, 0.00), (491.65, 740.87), 0.00
M 0.00000 7 (96.35, 951.84, 0.00), (96.35, 951.84), 0.00
M 0.00000 8 (687.65, 892.08, 0.00), (687.65, 892.08), 0.00
M 0.00000 9 (940.15, 785.65, 0.00), (940.15, 785.65), 0.00
M 0.00000 10 (194.35, 45.08, 0.00), (194.35, 45.08), 0.00
M 0.00000 11 (210.70, 295.65, 0.00), (210.70, 295.65), 0.00
M 0.00000 12 (684.35, 791.89, 0.00), (684.35, 791.89), 0.00
M 0.00000 13 (390.35, 69.88, 0.00), (390.35, 69.88), 0.00
M 0.00000 14 (785.65, 710.50, 0.00), (785.65, 710.50), 0.00
M 0.00000 15 (491.65, 873.26, 0.00), (491.65, 873.26), 0.00
M 0.00000 16 (99.65, 20.98, 0.00), (99.65, 20.98), 0.00
M 0.00000 17 (453.54, 880.35, 0.00), (453.54, 880.35), 0.00
M 0.00000 18 (814.42, 96.35, 0.00), (814.42, 96.35), 0.00
M 0.00000 19 (858.46, 589.65, 0.00), (858.46, 589.65), 0.00
M 0.00000 20 (488.35, 719.19, 0.00), (488.35, 719.19), 0.00
M 0.00000 21 (488.35, 105.27, 0.00), (488.35, 105.27), 0.00
M 0.00000 22 (66.58, 1.65, 0.00), (66.58, 1.65), 0.00
M 0.00000 23 (325.35, 981.65, 0.00), (325.35, 981.65), 0.00
M 0.00000 24 (225.29, 292.35, 0.00), (225.29, 292.35), 0.00
M 0.00000 25 (626.33, 684.35, 0.00), (626.33, 684.35), 0.00
M 0.00000 26 (99.65, 947.01, 0.00), (99.65, 947.01), 0.00
M 0.00000 27 (883.65, 896.87, 0.00), (883.65, 896.87), 0.00
M 0.00000 28 (766.09, 782.35, 0.00), (766.09, 782.35), 0.00
M 0.00000 29 (488.35, 412.74, 0.00), (488.35, 412.74), 0.00
M 0.00000 30 (1.65, 64.37, 0.00), (1.65, 64.37), 0.00
M 0.00000 31 (491.65, 320.92, 0.00), (491.65, 320.92), 0.00
M 0.00000 32 (687.65, 178.04, 0.00), (687.65, 178.04), 0.00
M 0.00000 33 (190.22, 197.65, 0.00), (190.22, 197.65), 0.00
M 0.00000 34 (742.01, 96.35, 0.00), (742.01, 96.35), 0.00
M 0.00000 35 (978.35, 956.02, 0.00), (978.35, 956.02), 0.00
M 0.00000 36 (1.65, 149.10, 0.00), (1.65, 149.10), 0.00
M 0.00000 37 (67.07, 488.35, 0.00), (67.07, 488.35), 0.00
M 0.00000 0 (83.44, 1.65, 0.00), (83.44, 1.65), 3.27
M 0.00000 1 (324.19, 883.65, 0.00), (324.19, 883.65), 16.49
s 0.010141804 _0_ RTR  --- 0 message 32 [0 0 0 0] ------- [0:255 -1:255 32 0] 
s 0.010796804 _0_ MAC  --- 0 message 90 [0 ffffffff 0 800] ------- [0:255 -1:255 32 0] 
r 0.011516860 _22_ MAC  --- 0 message 32 [0 ffffffff 0 800] ------- [0:255 -1:255 32 0] 
r 0.011516888 _16_ MAC  --- 0 message 32 [0 ffffffff 0 800] ------- [0:255 -1:255 32 0] 
r 0.011517148 _30_ MAC  --- 0 message 32 [0 ffffffff 0 800] ------- [0:255 -1:255 32 0] 
r 0.011517201 _10_ MAC  --- 0 message 32 [0 ffffffff 0 800] ------- [0:255 -1:255 32 0] 
r 0.011517366 _36_ MAC  --- 0 message 32 [0 ffffffff 0 800] ------- [0:255 -1:255 32 0] 
r 0.011517548 _33_ MAC  --- 0 message 32 [0 ffffffff 0 800] ------- [0:255 -1:255 32 0] 
r 0.011517852 _13_ MAC  --- 0 message 32 [0 ffffffff 0 800] ------- [0:255 -1:255 32 0] 
r 0.011517872 _11_ MAC  --- 0 message 32 [0 ffffffff 0 800] ------- [0:255 -1:255 32 0] 
r 0.011517882 _24_ MAC  --- 0 message 32 [0 ffffffff 0 800] ------- [0:255 -1:255 32 0] 
r 0.011541860 _22_ RTR  --- 0 message 32 [0 ffffffff 0 800] ------- [0:255 -1:255 32 0] 
r 0.011541888 _16_ RTR  --- 0 message 32 [0 ffffffff 0 800] ------- [0:255 -1:255 32 0] 
r 0.011542148 _30_ RTR  --- 0 message 32 [0 ffffffff 0 800] ------- [0:255 -1:255 32 0] 
r 0.011542201 _10_ RTR  --- 0 message 32 [0 ffffffff 0 800] ------- [0:255 -1:255 32 0] 
r 0.011542366 _36_ RTR  --- 0 message 32 [0 ffffffff 0 800] ------- [0:255 -1:255 32 0] 
r 0.011542548 _33_ RTR  --- 0 message 32 [0 ffffffff 0 800] ------- [0:255 -1:255 32 0] 
r 0.011542852 _13_ RTR  --- 0 message 32 [0 ffffffff 0 800] ------- [0:255 -1:255 32 0] 
r 0.011542872 _11_ RTR  --- 0 message 32 [0 ffffffff 0 800] ------- [0:255 -1:255 32 0] 
r 0.011542882 _24_ RTR  --- 0 message 32 [0 ffffffff 0 800] ------- [0:255 -1:255 32 0] 
s 0.028517405 _2_ RTR  --- 1 message 32 [0 0 0 0] ------- [2:255 -1:255 32 0] 
s 0.029092405 _2_ MAC  --- 1 message 90 [0 ffffffff 2 800] ------- [2:255 -1:255 32 0] 
r 0.029812462 _9_ MAC  --- 1 message 32 [0 ffffffff 2 800] ------- [2:255 -1:255 32 0] 
r 0.029812798 _27_ MAC  --- 1 message 32 [0 ffffffff 2 800] ------- [2:255 -1:255 32 0] 
r 0.029812927 _14_ MAC  --- 1 message 32 [0 ffffffff 2 800] ------- [2:255 -1:255 32 0] 
r 0.029812928 _28_ MAC  --- 1 message 32 [0 ffffffff 2 800] ------- [2:255 -1:255 32 0] 
r 0.029813002 _35_ MAC  --- 1 message 32 [0 ffffffff 2 800] ------- [2:255 -1:255 32 0] 
r 0.029813093 _19_ MAC  --- 1 message 32 [0 ffffffff 2 800] ------- [2:255 -1:255 32 0] 
r 0.029813201 _12_ MAC  --- 1 message 32 [0 ffffffff 2 800] ------- [2:255 -1:255 32 0] 
r 0.029813266 _8_ MAC  --- 1 message 32 [0 ffffffff 2 800] ------- [2:255 -1:255 32 0] 
r 0.029813450 _25_ MAC  --- 1 message 32 [0 ffffffff 2 800] ------- [2:255 -1:255 32 0] 
r 0.029837462 _9_ RTR  --- 1 message 32 [0 ffffffff 2 800] ------- [2:255 -1:255 32 0] 
r 0.029837798 _27_ RTR  --- 1 message 32 [0 ffffffff 2 800] ------- [2:255 -1:255 32 0] 
r 0.029837927 _14_ RTR  --- 1 message 32 [0 ffffffff 2 800] ------- [2:255 -1:255 32 0] 
r 0.029837928 _28_ RTR  --- 1 message 32 [0 ffffffff 2 800] ------- [2:255 -1:255 32 0] 
r 0.029838002 _35_ RTR  --- 1 message 32 [0 ffffffff 2 800] ------- [2:255 -1:255 32 0] 
r 0.029838093 _19_ RTR  --- 1 message 32 [0 ffffffff 2 800] ------- [2:255 -1:255 32 0] 
r 0.029838201 _12_ RTR  --- 1 message 32 [0 ffffffff 2 800] ------- [2:255 -1:255 32 0] 
r 0.029838266 _8_ RTR  --- 1 message 32 [0 ffffffff 2 800] ------- [2:255 -1:255 32 0] 
r 0.029838450 _25_ RTR  --- 1 message 32 [0 ffffffff 2 800] ------- [2:255 -1:255 32 0] 
s 0.092275354 _13_ RTR  --- 2 message 32 [0 0 0 0] ------- [13:255 -1:255 32 0] 
s 0.092830354 _13_ MAC  --- 2 message 90 [0 ffffffff d 800] ------- [13:255 -1:255 32 0] 
r 0.093550702 _21_ MAC  --- 2 message 32 [0 ffffffff d 800] ------- [13:255 -1:255 32 0] 
r 0.093550845 _5_ MAC  --- 2 message 32 [0 ffffffff d 800] ------- [13:255 -1:255 32 0] 
r 0.093551013 _10_ MAC  --- 2 message 32 [0 ffffffff d 800] ------- [13:255 -1:255 32 0] 
r 0.093551146 _33_ MAC  --- 2 message 32 [0 ffffffff d 800] ------- [13:255 -1:255 32 0] 
r 0.093551257 _31_ MAC  --- 2 message 32 [0 ffffffff d 800] ------- [13:255 -1:255 32 0] 
r 0.093551278 _24_ MAC  --- 2 message 32 [0 ffffffff d 800] ------- [13:255 -1:255 32 0] 
r 0.093551316 _11_ MAC  --- 2 message 32 [0 ffffffff d 800] ------- [13:255 -1:255 32 0] 
r 0.093551337 _16_ MAC  --- 2 message 32 [0 ffffffff d 800] ------- [13:255 -1:255 32 0] 
r 0.093551402 _0_ MAC  --- 2 message 32 [0 ffffffff d 800] ------- [13:255 -1:255 32 0] 
r 0.093551409 _32_ MAC  --- 2 message 32 [0 ffffffff d 800] ------- [13:255 -1:255 32 0] 
r 0.093551457 _22_ MAC  --- 2 message 32 [0 ffffffff d 800] ------- [13:255 -1:255 32 0] 
r 0.093551462 _3_ MAC  --- 2 message 32 [0 ffffffff d 800] ------- [13:255 -1:255 32 0] 
r 0.093551530 _34_ MAC  --- 2 message 32 [0 ffffffff d 800] ------- [13:255 -1:255 32 0] 
r 0.093551543 _29_ MAC  --- 2 message 32 [0 ffffffff d 800] ------- [13:255 -1:255 32 0] 
r 0.093551650 _30_ MAC  --- 2 message 32 [0 ffffffff d 800] ------- [13:255 -1:255 32 0] 
r 0.093551677 _36_ MAC  --- 2 message 32 [0 ffffffff d 800] ------- [13:255 -1:255 32 0] 
r 0.093575702 _21_ RTR  --- 2 message 32 [0 ffffffff d 800] ------- [13:255 -1:255 32 0] 
r 0.093575845 _5_ RTR  --- 2 message 32 [0 ffffffff d 800] ------- [13:255 -1:255 32 0] 
r 0.093576013 _10_ RTR  --- 2 message 32 [0 ffffffff d 800] ------- [13:255 -1:255 32 0] 
r 0.093576146 _33_ RTR  --- 2 message 32 [0 ffffffff d 800] ------- [13:255 -1:255 32 0] 
r 0.093576257 _31_ RTR  --- 2 message 32 [0 ffffffff d 800] ------- [13:255 -1:255 32 0] 
r 0.093576278 _24_ RTR  --- 2 message 32 [0 ffffffff d 800] ------- [13:255 -1:255 32 0] 
r 0.093576316 _11_ RTR  --- 2 message 32 [0 ffffffff d 800] ------- [13:255 -1:255 32 0] 
r 0.093576337 _16_ RTR  --- 2 message 32 [0 ffffffff d 800] ------- [13:255 -1:255 32 0] 
r 0.093576402 _0_ RTR  --- 2 message 32 [0 ffffffff d 800] ------- [13:255 -1:255 32 0] 
r 0.093576409 _32_ RTR  --- 2 message 32 [0 ffffffff d 800] ------- [13:255 -1:255 32 0] 
r 0.093576457 _22_ RTR  --- 2 message 32 [0 ffffffff d 800] ------- [13:255 -1:255 32 0] 
r 0.093576462 _3_ RTR  --- 2 message 32 [0 ffffffff d 800] ------- [13:255 -1:255 32 0] 
r 0.093576530 _34_ RTR  --- 2 message 32 [0 ffffffff d 800] ------- [13:255 -1:255 32 0] 
r 0.093576543 _29_ RTR  --- 2 message 32 [0 ffffffff d 800] ------- [13:255 -1:255 32 0] 
r 0.093576650 _30_ RTR  --- 2 message 32 [0 ffffffff d 800] ------- [13:255 -1:255 32 0] 
r 0.093576677 _36_ RTR  --- 2 message 32 [0 ffffffff d 800] ------- [13:255 -1:255 32 0] 
s 0.185011899 _3_ RTR  --- 3 message 32 [0 0 0 0] ------- [3:255 -1:255 32 0] 
s 0.185246899 _3_ MAC  --- 3 message 90 [0 ffffffff 3 800] ------- [3:255 -1:255 32 0] 
r 0.185967315 _24_ MAC  --- 3 message 32 [0 ffffffff 3 800] ------- [3:255 -1:255 32 0] 
r 0.185967339 _11_ MAC  --- 3 message 32 [0 ffffffff 3 800] ------- [3:255 -1:255 32 0] 
r 0.185967523 _29_ MAC  --- 3 message 32 [0 ffffffff 3 800] ------- [3:255 -1:255 32 0] 
r 0.185967571 _31_ MAC  --- 3 message 32 [0 ffffffff 3 800] ------- [3:255 -1:255 32 0] 
r 0.185967643 _33_ MAC  --- 3 message 32 [0 ffffffff 3 800] ------- [3:255 -1:255 32 0] 
r 0.185967736 _5_ MAC  --- 3 message 32 [0 ffffffff 3 800] ------- [3:255 -1:255 32 0] 
r 0.185967750 _37_ MAC  --- 3 message 32 [0 ffffffff 3 800] ------- [3:255 -1:255 32 0] 
r 0.185968007 _13_ MAC  --- 3 message 32 [0 ffffffff 3 800] ------- [3:255 -1:255 32 0] 
r 0.185968034 _21_ MAC  --- 3 message 32 [0 ffffffff 3 800] ------- [3:255 -1:255 32 0] 
r 0.185968106 _10_ MAC  --- 3 message 32 [0 ffffffff 3 800] ------- [3:255 -1:255 32 0] 
r 0.185968158 _20_ MAC  --- 3 message 32 [0 ffffffff 3 800] ------- [3:255 -1:255 32 0] 
r 0.185968185 _36_ MAC  --- 3 message 32 [0 ffffffff 3 800] ------- [3:255 -1:255 32 0] 
r 0.185968227 _6_ MAC  --- 3 message 32 [0 ffffffff 3 800] ------- [3:255 -1:255 32 0] 
r 0.185992315 _24_ RTR  --- 3 message 32 [0 ffffffff 3 800] ------- [3:255 -1:255 32 0] 
r 0.185992339 _11_ RTR  --- 3 message 32 [0 ffffffff 3 800] ------- [3:255 -1:255 32 0] 
r 0.185992523 _29_ RTR  --- 3 message 32 [0 ffffffff 3 800] ------- [3:255 -1:255 32 0] 
r 0.185992571 _31_ RTR  --- 3 message 32 [0 ffffffff 3 800] ------- [3:255 -1:255 32 0] 
r 0.185992643 _33_ RTR  --- 3 message 32 [0 ffffffff 3 800] ------- [3:255 -1:255 32 0] 
r 0.185992736 _5_ RTR  --- 3 message 32 [0 ffffffff 3 800] ------- [3:255 -1:255 32 0] 
r 0.185992750 _37_ RTR  --- 3 message 32 [0 ffffffff 3 800] ------- [3:255 -1:255 32 0] 
r 0.185993007 _13_ RTR  --- 3 message 32 [0 ffffffff 3 800] ------- [3:255 -1:255 32 0] 
r 0.185993034 _21_ RTR  --- 3 message 32 [0 ffffffff 3 800] ------- [3:255 -1:255 32 0] 
r 0.185993106 _10_ RTR  --- 3 message 32 [0 ffffffff 3 800] ------- [3:255 -1:255 32 0] 
r 0.185993158 _20_ RTR  --- 3 message 32 [0 ffffffff 3 800] ------- [3:255 -1:255 32 0] 
r 0.185993185 _36_ RTR  --- 3 message 32 [0 ffffffff 3 800] ------- [3:255 -1:255 32 0] 
r 0.185993227 _6_ RTR  --- 3 message 32 [0 ffffffff 3 800] ------- [3:255 -1:255 32 0] 
s 0.188553284 _19_ RTR  --- 4 message 32 [0 0 0 0] ------- [19:255 -1:255 32 0] 
s 0.188628284 _19_ MAC  --- 4 message 90 [0 ffffffff 13 800] ------- [19:255 -1:255 32 0] 
r 0.189348754 _14_ MAC  --- 4 message 32 [0 ffffffff 13 800] ------- [19:255 -1:255 32 0] 
r 0.189348972 _2_ MAC  --- 4 message 32 [0 ffffffff 13 800] ------- [19:255 -1:255 32 0] 
r 0.189348992 _9_ MAC  --- 4 message 32 [0 ffffffff 13 800] ------- [19:255 -1:255 32 0] 
r 0.189348996 _28_ MAC  --- 4 message 32 [0 ffffffff 13 800] ------- [19:255 -1:255 32 0] 
r 0.189349120 _25_ MAC  --- 4 message 32 [0 ffffffff 13 800] ------- [19:255 -1:255 32 0] 
r 0.189349173 _12_ MAC  --- 4 message 32 [0 ffffffff 13 800] ------- [19:255 -1:255 32 0] 
r 0.189349311 _27_ MAC  --- 4 message 32 [0 ffffffff 13 800] ------- [19:255 -1:255 32 0] 
r 0.189349442 _8_ MAC  --- 4 message 32 [0 ffffffff 13 800] ------- [19:255 -1:255 32 0] 
r 0.189349569 _35_ MAC  --- 4 message 32 [0 ffffffff 13 800] ------- [19:255 -1:255 32 0] 
r 0.189349591 _20_ MAC  --- 4 message 32 [0 ffffffff 13 800] ------- [19:255 -1:255 32 0] 
r 0.189349606 _6_ MAC  --- 4 message 32 [0 ffffffff 13 800] ------- [19:255 -1:255 32 0] 
r 0.189373754 _14_ RTR  --- 4 message 32 [0 ffffffff 13 800] ------- [19:255 -1:255 32 0] 
r 0.189373972 _2_ RTR  --- 4 message 32 [0 ffffffff 13 800] ------- [19:255 -1:255 32 0] 
r 0.189373992 _9_ RTR  --- 4 message 32 [0 ffffffff 13 800] ------- [19:255 -1:255 32 0] 
r 0.189373996 _28_ RTR  --- 4 message 32 [0 ffffffff 13 800] ------- [19:255 -1:255 32 0] 
r 0.189374120 _25_ RTR  --- 4 message 32 [0 ffffffff 13 800] ------- [19:255 -1:255 32 0] 
r 0.189374173 _12_ RTR  --- 4 message 32 [0 ffffffff 13 800] ------- [19:255 -1:255 32 0] 
r 0.189374311 _27_ RTR  --- 4 message 32 [0 ffffffff 13 800] ------- [19:255 -1:255 32 0] 
r 0.189374442 _8_ RTR  --- 4 message 32 [0 ffffffff 13 800] ------- [19:255 -1:255 32 0] 
r 0.189374569 _35_ RTR  --- 4 message 32 [0 ffffffff 13 800] ------- [19:255 -1:255 32 0] 
r 0.189374591 _20_ RTR  --- 4 message 32 [0 ffffffff 13 800] ------- [19:255 -1:255 32 0] 
r 0.189374606 _6_ RTR  --- 4 message 32 [0 ffffffff 13 800] ------- [19:255 -1:255 32 0] 
s 0.227865106 _36_ RTR  --- 5 message 32 [0 0 0 0] ------- [36:255 -1:255 32 0] 
s 0.228180106 _36_ MAC  --- 5 message 90 [0 ffffffff 24 800] ------- [36:255 -1:255 32 0] 
r 0.228900388 _30_ MAC  --- 5 message 32 [0 ffffffff 24 800] ------- [36:255 -1:255 32 0] 
r 0.228900643 _22_ MAC  --- 5 message 32 [0 ffffffff 24 800] ------- [36:255 -1:255 32 0] 
r 0.228900643 _16_ MAC  --- 5 message 32 [0 ffffffff 24 800] ------- [36:255 -1:255 32 0] 
r 0.228900668 _0_ MAC  --- 5 message 32 [0 ffffffff 24 800] ------- [36:255 -1:255 32 0] 
r 0.228900755 _33_ MAC  --- 5 message 32 [0 ffffffff 24 800] ------- [36:255 -1:255 32 0] 
r 0.228900836 _10_ MAC  --- 5 message 32 [0 ffffffff 24 800] ------- [36:255 -1:255 32 0] 
r 0.228900957 _11_ MAC  --- 5 message 32 [0 ffffffff 24 800] ------- [36:255 -1:255 32 0] 
r 0.228900991 _24_ MAC  --- 5 message 32 [0 ffffffff 24 800] ------- [36:255 -1:255 32 0] 
r 0.228901257 _37_ MAC  --- 5 message 32 [0 ffffffff 24 800] ------- [36:255 -1:255 32 0] 
r 0.228901391 _3_ MAC  --- 5 message 32 [0 ffffffff 24 800] ------- [36:255 -1:255 32 0] 
r 0.228901428 _13_ MAC  --- 5 message 32 [0 ffffffff 24 800] ------- [36:255 -1:255 32 0] 
r 0.228925388 _30_ RTR  --- 5 message 32 [0 ffffffff 24 800] ------- [36:255 -1:255 32 0] 
r 0.228925643 _22_ RTR  --- 5 message 32 [0 ffffffff 24 800] ------- [36:255 -1:255 32 0] 
r 0.228925643 _16_ RTR  --- 5 message 32 [0 ffffffff 24 800] ------- [36:255 -1:255 32 0] 
r 0.228925668 _0_ RTR  --- 5 message 32 [0 ffffffff 24 800] ------- [36:255 -1:255 32 0] 
r 0.228925755 _33_ RTR  --- 5 message 32 [0 ffffffff 24 800] ------- [36:255 -1:255 32 0] 
r 0.228925836 _10_ RTR  --- 5 message 32 [0 ffffffff 24 800] ------- [36:255 -1:255 32 0] 
r 0.228925957 _11_ RTR  --- 5 message 32 [0 ffffffff 24 800] ------- [36:255 -1:255 32 0] 
r 0.228925991 _24_ RTR  --- 5 message 32 [0 ffffffff 24 800] ------- [36:255 -1:255 32 0] 
r 0.228926257 _37_ RTR  --- 5 message 32 [0 ffffffff 24 800] ------- [36:255 -1:255 32 0] 
r 0.228926391 _3_ RTR  --- 5 message 32 [0 ffffffff 24 800] ------- [36:255 -1:255 32 0] 
r 0.228926428 _13_ RTR  --- 5 message 32 [0 ffffffff 24 800] ------- [36:255 -1:255 32 0] 
s 0.229683837 _15_ RTR  --- 6 message 32 [0 0 0 0] ------- [15:255 -1:255 32 0] 
s 0.230058837 _15_ MAC  --- 6 message 90 [0 ffffffff f 800] ------- [15:255 -1:255 32 0] 
r 0.230778967 _17_ MAC  --- 6 message 32 [0 ffffffff f 800] ------- [15:255 -1:255 32 0] 
r 0.230779279 _6_ MAC  --- 6 message 32 [0 ffffffff f 800] ------- [15:255 -1:255 32 0] 
r 0.230779351 _20_ MAC  --- 6 message 32 [0 ffffffff f 800] ------- [15:255 -1:255 32 0] 
r 0.230779397 _1_ MAC  --- 6 message 32 [0 ffffffff f 800] ------- [15:255 -1:255 32 0] 
r 0.230779494 _8_ MAC  --- 6 message 32 [0 ffffffff f 800] ------- [15:255 -1:255 32 0] 
r 0.230779499 _23_ MAC  --- 6 message 32 [0 ffffffff f 800] ------- [15:255 -1:255 32 0] 
r 0.230779535 _12_ MAC  --- 6 message 32 [0 ffffffff f 800] ------- [15:255 -1:255 32 0] 
r 0.230779611 _25_ MAC  --- 6 message 32 [0 ffffffff f 800] ------- [15:255 -1:255 32 0] 
r 0.230779801 _28_ MAC  --- 6 message 32 [0 ffffffff f 800] ------- [15:255 -1:255 32 0] 
r 0.230779958 _14_ MAC  --- 6 message 32 [0 ffffffff f 800] ------- [15:255 -1:255 32 0] 
r 0.230780146 _27_ MAC  --- 6 message 32 [0 ffffffff f 800] ------- [15:255 -1:255 32 0] 
r 0.230780167 _26_ MAC  --- 6 message 32 [0 ffffffff f 800] ------- [15:255 -1:255 32 0] 
r 0.230803967 _17_ RTR  --- 6 message 32 [0 ffffffff f 800] ------- [15:255 -1:255 32 0] 
r 0.230804279 _6_ RTR  --- 6 message 32 [0 ffffffff f 800] ------- [15:255 -1:255 32 0] 
r 0.230804351 _20_ RTR  --- 6 message 32 [0 ffffffff f 800] ------- [15:255 -1:255 32 0] 
r 0.230804397 _1_ RTR  --- 6 message 32 [0 ffffffff f 800] ------- [15:255 -1:255 32 0] 
r 0.230804494 _8_ RTR  --- 6 message 32 [0 ffffffff f 800] ------- [15:255 -1:255 32 0] 
r 0.230804499 _23_ RTR  --- 6 message 32 [0 ffffffff f 800] ------- [15:255 -1:255 32 0] 
r 0.230804535 _12_ RTR  --- 6 message 32 [0 ffffffff f 800] ------- [15:255 -1:255 32 0] 
r 0.230804611 _25_ RTR  --- 6 message 32 [0 ffffffff f 800] ------- [15:255 -1:255 32 0] 
r 0.230804801 _28_ RTR  --- 6 message 32 [0 ffffffff f 800] ------- [15:255 -1:255 32 0] 
r 0.230804958 _14_ RTR  --- 6 message 32 [0 ffffffff f 800] ------- [15:255 -1:255 32 0] 
r 0.230805146 _27_ RTR  --- 6 message 32 [0 ffffffff f 800] ------- [15:255 -1:255 32 0] 
r 0.230805167 _26_ RTR  --- 6 message 32 [0 ffffffff f 800] ------- [15:255 -1:255 32 0] 
s 0.328792147 _12_ RTR  --- 7 message 32 [0 0 0 0] ------- [12:255 -1:255 32 0] 
s 0.329067147 _12_ MAC  --- 7 message 90 [0 ffffffff c 800] ------- [12:255 -1:255 32 0] 
r 0.329787422 _28_ MAC  --- 7 message 32 [0 ffffffff c 800] ------- [12:255 -1:255 32 0] 
r 0.329787481 _8_ MAC  --- 7 message 32 [0 ffffffff c 800] ------- [12:255 -1:255 32 0] 
r 0.329787555 _25_ MAC  --- 7 message 32 [0 ffffffff c 800] ------- [12:255 -1:255 32 0] 
r 0.329787580 _14_ MAC  --- 7 message 32 [0 ffffffff c 800] ------- [12:255 -1:255 32 0] 
r 0.329787812 _6_ MAC  --- 7 message 32 [0 ffffffff c 800] ------- [12:255 -1:255 32 0] 
r 0.329787844 _20_ MAC  --- 7 message 32 [0 ffffffff c 800] ------- [12:255 -1:255 32 0] 
r 0.329787845 _15_ MAC  --- 7 message 32 [0 ffffffff c 800] ------- [12:255 -1:255 32 0] 
r 0.329787898 _27_ MAC  --- 7 message 32 [0 ffffffff c 800] ------- [12:255 -1:255 32 0] 
r 0.329787943 _2_ MAC  --- 7 message 32 [0 ffffffff c 800] ------- [12:255 -1:255 32 0] 
r 0.329787971 _17_ MAC  --- 7 message 32 [0 ffffffff c 800] ------- [12:255 -1:255 32 0] 
r 0.329788000 _9_ MAC  --- 7 message 32 [0 ffffffff c 800] ------- [12:255 -1:255 32 0] 
r 0.329788037 _19_ MAC  --- 7 message 32 [0 ffffffff c 800] ------- [12:255 -1:255 32 0] 
r 0.329788270 _35_ MAC  --- 7 message 32 [0 ffffffff c 800] ------- [12:255 -1:255 32 0] 
r 0.329788386 _1_ MAC  --- 7 message 32 [0 ffffffff c 800] ------- [12:255 -1:255 32 0] 
r 0.329812422 _28_ RTR  --- 7 message 32 [0 ffffffff c 800] ------- [12:255 -1:255 32 0] 
r 0.329812481 _8_ RTR  --- 7 message 32 [0 ffffffff c 800] ------- [12:255 -1:255 32 0] 
r 0.329812555 _25_ RTR  --- 7 message 32 [0 ffffffff c 800] ------- [12:255 -1:255 32 0] 
r 0.329812580 _14_ RTR  --- 7 message 32 [0 ffffffff c 800] ------- [12:255 -1:255 32 0] 
r 0.329812812 _6_ RTR  --- 7 message 32 [0 ffffffff c 800] ------- [12:255 -1:255 32 0] 
r 0.329812844 _20_ RTR  --- 7 message 32 [0 ffffffff c 800] ------- [12:255 -1:255 32 0] 
r 0.329812845 _15_ RTR  --- 7 message 32 [0 ffffffff c 800] ------- [12:255 -1:255 32 0] 
r 0.329812898 _27_ RTR  --- 7 message 32 [0 ffffffff c 800] ------- [12:255 -1:255 32 0] 
r 0.329812943 _2_ RTR  --- 7 message 32 [0 ffffffff c 800] ------- [12:255 -1:255 32 0] 
r 0.329812971 _17_ RTR  --- 7 message 32 [0 ffffffff c 800] ------- [12:255 -1:255 32 0] 
r 0.329813000 _9_ RTR  --- 7 message 32 [0 ffffffff c 800] ------- [12:255 -1:255 32 0] 
r 0.329813037 _19_ RTR  --- 7 message 32 [0 ffffffff c 800] ------- [12:255 -1:255 32 0] 
r 0.329813270 _35_ RTR  --- 7 message 32 [0 ffffffff c 800] ------- [12:255 -1:255 32 0] 
r 0.329813386 _1_ RTR  --- 7 message 32 [0 ffffffff c 800] ------- [12:255 -1:255 32 0] 
s 0.353822708 _18_ RTR  --- 8 message 32 [0 0 0 0] ------- [18:255 -1:255 32 0] 
s 0.354097708 _18_ MAC  --- 8 message 90 [0 ffffffff 12 800] ------- [18:255 -1:255 32 0] 
r 0.354817950 _34_ MAC  --- 8 message 32 [0 ffffffff 12 800] ------- [18:255 -1:255 32 0] 
r 0.354818211 _32_ MAC  --- 8 message 32 [0 ffffffff 12 800] ------- [18:255 -1:255 32 0] 
r 0.354818405 _39_ MAC  --- 8 message 32 [0 ffffffff 12 800] ------- [18:255 -1:255 32 0] 
r 0.354818795 _21_ MAC  --- 8 message 32 [0 ffffffff 12 800] ------- [18:255 -1:255 32 0] 
r 0.354818926 _5_ MAC  --- 8 message 32 [0 ffffffff 12 800] ------- [18:255 -1:255 32 0] 
r 0.354819019 _31_ MAC  --- 8 message 32 [0 ffffffff 12 800] ------- [18:255 -1:255 32 0] 
r 0.354842950 _34_ RTR  --- 8 message 32 [0 ffffffff 12 800] ------- [18:255 -1:255 32 0] 
r 0.354843211 _32_ RTR  --- 8 message 32 [0 ffffffff 12 800] ------- [18:255 -1:255 32 0] 
r 0.354843405 _39_ RTR  --- 8 message 32 [0 ffffffff 12 800] ------- [18:255 -1:255 32 0] 
r 0.354843795 _21_ RTR  --- 8 message 32 [0 ffffffff 12 800] ------- [18:255 -1:255 32 0] 
r 0.354843926 _5_ RTR  --- 8 message 32 [0 ffffffff 12 800] ------- [18:255 -1:255 32 0] 
r 0.354844019 _31_ RTR  --- 8 message 32 [0 ffffffff 12 800] ------- [18:255 -1:255 32 0] 
s 0.382010901 _38_ RTR  --- 9 message 32 [0 0 0 0] ------- [38:255 -1:255 32 0] 
s 0.382205901 _38_ MAC  --- 9 message 90 [0 ffffffff 26 800] ------- [38:255 -1:255 32 0] 
r 0.382926260 _7_ MAC  --- 9 message 32 [0 ffffffff 26 800] ------- [38:255 -1:255 32 0] 
r 0.382926278 _26_ MAC  --- 9 message 32 [0 ffffffff 26 800] ------- [38:255 -1:255 32 0] 
r 0.382926607 _4_ MAC  --- 9 message 32 [0 ffffffff 26 800] ------- [38:255 -1:255 32 0] 
r 0.382926988 _23_ MAC  --- 9 message 32 [0 ffffffff 26 800] ------- [38:255 -1:255 32 0] 
r 0.382927049 _1_ MAC  --- 9 message 32 [0 ffffffff 26 800] ------- [38:255 -1:255 32 0] 
r 0.382951260 _7_ RTR  --- 9 message 32 [0 ffffffff 26 800] ------- [38:255 -1:255 32 0] 
r 0.382951278 _26_ RTR  --- 9 message 32 [0 ffffffff 26 800] ------- [38:255 -1:255 32 0] 
r 0.382951607 _4_ RTR  --- 9 message 32 [0 ffffffff 26 800] ------- [38:255 -1:255 32 0] 
r 0.382951988 _23_ RTR  --- 9 message 32 [0 ffffffff 26 800] ------- [38:255 -1:255 32 0] 
r 0.382952049 _1_ RTR  --- 9 message 32 [0 ffffffff 26 800] ------- [38:255 -1:255 32 0] 
s 0.442339037 _29_ RTR  --- 10 message 32 [0 0 0 0] ------- [29:255 -1:255 32 0] 
s 0.443014037 _29_ MAC  --- 10 message 90 [0 ffffffff 1d 800] ------- [29:255 -1:255 32 0] 
r 0.443734344 _31_ MAC  --- 10 message 32 [0 ffffffff 1d 800] ------- [29:255 -1:255 32 0] 
r 0.443734661 _3_ MAC  --- 10 message 32 [0 ffffffff 1d 800] ------- [29:255 -1:255 32 0] 
r 0.443734759 _5_ MAC  --- 10 message 32 [0 ffffffff 1d 800] ------- [29:255 -1:255 32 0] 
r 0.443735002 _24_ MAC  --- 10 message 32 [0 ffffffff 1d 800] ------- [29:255 -1:255 32 0] 
r 0.443735042 _11_ MAC  --- 10 message 32 [0 ffffffff 1d 800] ------- [29:255 -1:255 32 0] 
r 0.443735053 _25_ MAC  --- 10 message 32 [0 ffffffff 1d 800] ------- [29:255 -1:255 32 0] 
r 0.443735059 _20_ MAC  --- 10 message 32 [0 ffffffff 1d 800] ------- [29:255 -1:255 32 0] 
r 0.443735062 _21_ MAC  --- 10 message 32 [0 ffffffff 1d 800] ------- [29:255 -1:255 32 0] 
r 0.443735064 _32_ MAC  --- 10 message 32 [0 ffffffff 1d 800] ------- [29:255 -1:255 32 0] 
r 0.443735131 _6_ MAC  --- 10 message 32 [0 ffffffff 1d 800] ------- [29:255 -1:255 32 0] 
r 0.443735226 _13_ MAC  --- 10 message 32 [0 ffffffff 1d 800] ------- [29:255 -1:255 32 0] 
r 0.443735263 _33_ MAC  --- 10 message 32 [0 ffffffff 1d 800] ------- [29:255 -1:255 32 0] 
r 0.443759344 _31_ RTR  --- 10 message 32 [0 ffffffff 1d 800] ------- [29:255 -1:255 32 0] 
r 0.443759661 _3_ RTR  --- 10 message 32 [0 ffffffff 1d 800] ------- [29:255 -1:255 32 0] 
r 0.443759759 _5_ RTR  --- 10 message 32 [0 ffffffff 1d 800] ------- [29:255 -1:255 32 0] 
r 0.443760002 _24_ RTR  --- 10 message 32 [0 ffffffff 1d 800] ------- [29:255 -1:255 32 0] 
r 0.443760042 _11_ RTR  --- 10 message 32 [0 ffffffff 1d 800] ------- [29:255 -1:255 32 0] 
r 0.443760053 _25_ RTR  --- 10 message 32 [0 ffffffff 1d 800] ------- [29:255 -1:255 32 0] 
r 0.443760059 _20_ RTR  --- 10 message 32 [0 ffffffff 1d 800] ------- [29:255 -1:255 32 0] 
r 0.443760062 _21_ RTR  --- 10 message 32 [0 ffffffff 1d 800] ------- [29:255 -1:255 32 0] 
r 0.443760064 _32_ RTR  --- 10 message 32 [0 ffffffff 1d 800] ------- [29:255 -1:255 32 0] 
r 0.443760131 _6_ RTR  --- 10 message 32 [0 ffffffff 1d 800] ------- [29:255 -1:255 32 0] 
r 0.443760226 _13_ RTR  --- 10 message 32 [0 ffffffff 1d 800] ------- [29:255 -1:255 32 0] 
r 0.443760263 _33_ RTR  --- 10 message 32 [0 ffffffff 1d 800] ------- [29:255 -1:255 32 0] 
s 0.477041254 _8_ RTR  --- 11 message 32 [0 0 0 0] ------- [8:255 -1:255 32 0] 
s 0.477416254 _8_ MAC  --- 11 message 90 [0 ffffffff 8 800] ------- [8:255 -1:255 32 0] 
r 0.478136588 _12_ MAC  --- 11 message 32 [0 ffffffff 8 800] ------- [8:255 -1:255 32 0] 
r 0.478136704 _28_ MAC  --- 11 message 32 [0 ffffffff 8 800] ------- [8:255 -1:255 32 0] 
r 0.478136908 _27_ MAC  --- 11 message 32 [0 ffffffff 8 800] ------- [8:255 -1:255 32 0] 
r 0.478136911 _15_ MAC  --- 11 message 32 [0 ffffffff 8 800] ------- [8:255 -1:255 32 0] 
r 0.478136942 _14_ MAC  --- 11 message 32 [0 ffffffff 8 800] ------- [8:255 -1:255 32 0] 
r 0.478136976 _25_ MAC  --- 11 message 32 [0 ffffffff 8 800] ------- [8:255 -1:255 32 0] 
r 0.478137036 _17_ MAC  --- 11 message 32 [0 ffffffff 8 800] ------- [8:255 -1:255 32 0] 
r 0.478137079 _6_ MAC  --- 11 message 32 [0 ffffffff 8 800] ------- [8:255 -1:255 32 0] 
r 0.478137115 _2_ MAC  --- 11 message 32 [0 ffffffff 8 800] ------- [8:255 -1:255 32 0] 
r 0.478137134 _20_ MAC  --- 11 message 32 [0 ffffffff 8 800] ------- [8:255 -1:255 32 0] 
r 0.478137168 _9_ MAC  --- 11 message 32 [0 ffffffff 8 800] ------- [8:255 -1:255 32 0] 
r 0.478137246 _35_ MAC  --- 11 message 32 [0 ffffffff 8 800] ------- [8:255 -1:255 32 0] 
r 0.478137412 _19_ MAC  --- 11 message 32 [0 ffffffff 8 800] ------- [8:255 -1:255 32 0] 
r 0.478137466 _1_ MAC  --- 11 message 32 [0 ffffffff 8 800] ------- [8:255 -1:255 32 0] 
r 0.478137498 _23_ MAC  --- 11 message 32 [0 ffffffff 8 800] ------- [8:255 -1:255 32 0] 
r 0.478161588 _12_ RTR  --- 11 message 32 [0 ffffffff 8 800] ------- [8:255 -1:255 32 0] 
r 0.478161704 _28_ RTR  --- 11 message 32 [0 ffffffff 8 800] ------- [8:255 -1:255 32 0] 
r 0.478161908 _27_ RTR  --- 11 message 32 [0 ffffffff 8 800] ------- [8:255 -1:255 32 0] 
r 0.478161911 _15_ RTR  --- 11 message 32 [0 ffffffff 8 800] ------- [8:255 -1:255 32 0] 
r 0.478161942 _14_ RTR  --- 11 message 32 [0 ffffffff 8 800] ------- [8:255 -1:255 32 0] 
r 0.478161976 _25_ RTR  --- 11 message 32 [0 ffffffff 8 800] ------- [8:255 -1:255 32 0] 
r 0.478162036 _17_ RTR  --- 11 message 32 [0 ffffffff 8 800] ------- [8:255 -1:255 32 0] 
r 0.478162079 _6_ RTR  --- 11 message 32 [0 ffffffff 8 800] ------- [8:255 -1:255 32 0] 
r 0.478162115 _2_ RTR  --- 11 message 32 [0 ffffffff 8 800] ------- [8:255 -1:255 32 0] 
r 0.478162134 _20_ RTR  --- 11 message 32 [0 ffffffff 8 800] ------- [8:255 -1:255 32 0] 
r 0.478162168 _9_ RTR  --- 11 message 32 [0 ffffffff 8 800] ------- [8:255 -1:255 32 0] 
r 0.478162246 _35_ RTR  --- 11 message 32 [0 ffffffff 8 800] ------- [8:255 -1:255 32 0] 
r 0.478162412 _19_ RTR  --- 11 message 32 [0 ffffffff 8 800] ------- [8:255 -1:255 32 0] 
r 0.478162466 _1_ RTR  --- 11 message 32 [0 ffffffff 8 800] ------- [8:255 -1:255 32 0] 
r 0.478162498 _23_ RTR  --- 11 message 32 [0 ffffffff 8 800] ------- [8:255 -1:255 32 0] 
s 0.487912486 _30_ RTR  --- 12 message 32 [0 0 0 0] ------- [30:255 -1:255 32 0] 
s 0.488567486 _30_ MAC  --- 12 message 90 [0 ffffffff 1e 800] ------- [30:255 -1:255 32 0] 
r 0.489287769 _36_ MAC  --- 12 message 32 [0 ffffffff 1e 800] ------- [30:255 -1:255 32 0] 
r 0.489287787 _22_ MAC  --- 12 message 32 [0 ffffffff 1e 800] ------- [30:255 -1:255 32 0] 
r 0.489287830 _0_ MAC  --- 12 message 32 [0 ffffffff 1e 800] ------- [30:255 -1:255 32 0] 
r 0.489287843 _16_ MAC  --- 12 message 32 [0 ffffffff 1e 800] ------- [30:255 -1:255 32 0] 
r 0.489288132 _10_ MAC  --- 12 message 32 [0 ffffffff 1e 800] ------- [30:255 -1:255 32 0] 
r 0.489288256 _33_ MAC  --- 12 message 32 [0 ffffffff 1e 800] ------- [30:255 -1:255 32 0] 
r 0.489288525 _11_ MAC  --- 12 message 32 [0 ffffffff 1e 800] ------- [30:255 -1:255 32 0] 
r 0.489288551 _24_ MAC  --- 12 message 32 [0 ffffffff 1e 800] ------- [30:255 -1:255 32 0] 
r 0.489288782 _13_ MAC  --- 12 message 32 [0 ffffffff 1e 800] ------- [30:255 -1:255 32 0] 
r 0.489312769 _36_ RTR  --- 12 message 32 [0 ffffffff 1e 800] ------- [30:255 -1:255 32 0] 
r 0.489312787 _22_ RTR  --- 12 message 32 [0 ffffffff 1e 800] ------- [30:255 -1:255 32 0] 
r 0.489312830 _0_ RTR  --- 12 message 32 [0 ffffffff 1e 800] ------- [30:255 -1:255 32 0] 
r 0.489312843 _16_ RTR  --- 12 message 32 [0 ffffffff 1e 800] ------- [30:255 -1:255 32 0] 
r 0.489313132 _10_ RTR  --- 12 message 32 [0 ffffffff 1e 800] ------- [30:255 -1:255 32 0] 