n -t * -s 0  -x 529.5 -y 508.58999999999997 -Z 0 -z 100  -v circle -c black
n -t * -s 1  -x 821.67999999999995 -y 219.25 -Z 0 -z 100  -v circle -c black
n -t * -s 2  -x 89.25 -y 846.13 -Z 0 -z 100  -v circle -c black
n -t * -s 3  -x 1052.22 -y 217.41999999999999 -Z 0 -z 100  -v circle -c black
n -t * -s 4  -x 712.75 -y 704.04999999999995 -Z 0 -z 100  -v circle -c black
n -t * -s 5  -x 47.200000000000003 -y 333.88999999999999 -Z 0 -z 100  -v circle -c black
n -t * -s 6  -x 514.10000000000002 -y 708.72000000000003 -Z 0 -z 100  -v circle -c black
n -t * -s 7  -x 409.77999999999997 -y 1065.5999999999999 -Z 0 -z 100  -v circle -c black
n -t * -s 8  -x 575.75 -y 1318.78 -Z 0 -z 100  -v circle -c black
n -t * -s 9  -x 253.38 -y 488.22000000000003 -Z 0 -z 100  -v circle -c black
n -t * -s 10  -x 1036.52 -y 727.55999999999995 -Z 0 -z 100  -v circle -c black
n -t * -s 11  -x 1339.54 -y 880.49000000000001 -Z 0 -z 100  -v circle -c black
n -t * -s 12  -x 1263.53 -y 481.87 -Z 0 -z 100  -v circle -c black
n -t * -s 13  -x 1073.6600000000001 -y 1106.9300000000001 -Z 0 -z 100  -v circle -c black
n -t * -s 14  -x 554.98000000000002 -y 1321.6700000000001 -Z 0 -z 100  -v circle -c black
n -t * -s 15  -x 33.079999999999998 -y 1397.26 -Z 0 -z 100  -v circle -c black
n -t * -s 16  -x 921.97000000000003 -y 1095.71 -Z 0 -z 100  -v circle -c black
n -t * -s 17  -x 1293.21 -y 632.75999999999999 -Z 0 -z 100  -v circle -c black
n -t * -s 18  -x 853.41999999999996 -y 206.88999999999999 -Z 0 -z 100  -v circle -c black
n -t * -s 19  -x 555.49000000000001 -y 1057.6700000000001 -Z 0 -z 100  -v circle -c black
n -t * -s 20  -x 91.379999999999995 -y 628.23000000000002 -Z 0 -z 100  -v circle -c black
n -t * -s 21  -x 490.35000000000002 -y 1202.3599999999999 -Z 0 -z 100  -v circle -c black
n -t * -s 22  -x 839.45000000000005 -y 1274.6600000000001 -Z 0 -z 100  -v circle -c black
n -t * -s 23  -x 1018.16 -y 882.67999999999995 -Z 0 -z 100  -v circle -c black
n -t * -s 24  -x 809.5 -y 220.34999999999999 -Z 0 -z 100  -v circle -c black
n -t * -s 25  -x 731.44000000000005 -y 662.88 -Z 0 -z 100  -v circle -c black
n -t * -s 26  -x 1267.8699999999999 -y 507.89999999999998 -Z 0 -z 100  -v circle -c black
n -t * -s 27  -x 0 -y 0 -Z 0 -z 100  -v circle -c black
n -t * -s 28  -x 0 -y 1000 -Z 0 -z 100  -v circle -c black
n -t * -s 29  -x 1000 -y 0 -Z 0 -z 100  -v circle -c black
V -t * -v 1.0a5 -a 0
W -t * -x 1700 -y 1700
A -t * -n 1 -p 0 -o 0x7fffffff -c 30 -a 1
A -t * -h 1 -m 1073741823 -s 0
n -t 0.000000 -s 0 -x 529.500000 -y 508.590000 -U 0.000000 -V 0.000000 -T 0.000000
n -t 0.000000 -s 1 -x 821.680000 -y 219.250000 -U 0.000000 -V 0.000000 -T 0.000000
n -t 0.000000 -s 2 -x 89.250000 -y 846.130000 -U 0.000000 -V 0.000000 -T 0.000000
n -t 0.000000 -s 3 -x 1052.220000 -y 217.420000 -U 0.000000 -V 0.000000 -T 0.000000
n -t 0.000000 -s 4 -x 712.750000 -y 704.050000 -U 0.000000 -V 0.000000 -T 0.000000
n -t 0.000000 -s 5 -x 47.200000 -y 333.890000 -U 0.000000 -V 0.000000 -T 0.000000
n -t 0.000000 -s 6 -x 514.100000 -y 708.720000 -U 0.000000 -V 0.000000 -T 0.000000
n -t 0.000000 -s 7 -x 409.780000 -y 1065.600000 -U 0.000000 -V 0.000000 -T 0.000000
n -t 0.000000 -s 8 -x 575.750000 -y 1318.780000 -U 0.000000 -V 0.000000 -T 0.000000
n -t 0.000000 -s 9 -x 253.380000 -y 488.220000 -U 0.000000 -V 0.000000 -T 0.000000
n -t 0.000000 -s 10 -x 1036.520000 -y 727.560000 -U 0.000000 -V 0.000000 -T 0.000000
n -t 0.000000 -s 11 -x 1339.540000 -y 880.490000 -U 0.000000 -V 0.000000 -T 0.000000
n -t 0.000000 -s 12 -x 1263.530000 -y 481.870000 -U 0.000000 -V 0.000000 -T 0.000000
n -t 0.000000 -s 13 -x 1073.660000 -y 1106.930000 -U 0.000000 -V 0.000000 -T 0.000000
n -t 0.000000 -s 14 -x 554.980000 -y 1321.670000 -U 0.000000 -V 0.000000 -T 0.000000
n -t 0.000000 -s 15 -x 33.080000 -y 1397.260000 -U 0.000000 -V 0.000000 -T 0.000000
n -t 0.000000 -s 16 -x 921.970000 -y 1095.710000 -U 0.000000 -V 0.000000 -T 0.000000
n -t 0.000000 -s 17 -x 1293.210000 -y 632.760000 -U 0.000000 -V 0.000000 -T 0.000000
n -t 0.000000 -s 18 -x 853.420000 -y 206.890000 -U 0.000000 -V 0.000000 -T 0.000000
n -t 0.000000 -s 19 -x 555.490000 -y 1057.670000 -U 0.000000 -V 0.000000 -T 0.000000
n -t 0.000000 -s 20 -x 91.380000 -y 628.230000 -U 0.000000 -V 0.000000 -T 0.000000
n -t 0.000000 -s 21 -x 490.350000 -y 1202.360000 -U 0.000000 -V 0.000000 -T 0.000000
n -t 0.000000 -s 22 -x 839.450000 -y 1274.660000 -U 0.000000 -V 0.000000 -T 0.000000
n -t 0.000000 -s 23 -x 1018.160000 -y 882.680000 -U 0.000000 -V 0.000000 -T 0.000000
n -t 0.000000 -s 24 -x 809.500000 -y 220.350000 -U 0.000000 -V 0.000000 -T 0.000000
n -t 0.000000 -s 25 -x 731.440000 -y 662.880000 -U 0.000000 -V 0.000000 -T 0.000000
n -t 0.000000 -s 26 -x 1267.870000 -y 507.900000 -U 0.000000 -V 0.000000 -T 0.000000
n -t 0.000000 -s 0 -x 529.500000 -y 508.590000 -U 0.000000 -V 0.000000 -T 0.000000
n -t 0.000000 -s 1 -x 821.680000 -y 219.250000 -U 0.000000 -V 0.000000 -T 0.000000
+ -t 0.003091411 -s 0 -d -1 -p message -e 32 -c 2 -a 0 -i 0 -k RTR 
- -t 0.003091411 -s 0 -d -1 -p message -e 32 -c 2 -a 0 -i 0 -k RTR
h -t 0.003091411 -s 0 -d -1 -p message -e 32 -c 2 -a 0 -i 0 -k RTR
+ -t 0.003466411 -s 0 -d -1 -p message -e 90 -c 2 -a 0 -i 0 -k MAC 
- -t 0.003466411 -s 0 -d -1 -p message -e 90 -c 2 -a 0 -i 0 -k MAC
h -t 0.003466411 -s 0 -d -1 -p message -e 90 -c 2 -a 0 -i 0 -k MAC
r -t 0.004187080 -s 6 -d -1 -p message -e 32 -c 2 -a 0 -i 0 -k MAC
r -t 0.004187258 -s 25 -d -1 -p message -e 32 -c 2 -a 0 -i 0 -k MAC
r -t 0.004187304 -s 4 -d -1 -p message -e 32 -c 2 -a 0 -i 0 -k MAC
r -t 0.004187334 -s 9 -d -1 -p message -e 32 -c 2 -a 0 -i 0 -k MAC
r -t 0.004212080 -s 6 -d -1 -p message -e 32 -c 2 -a 0 -i 0 -k RTR
r -t 0.004212258 -s 25 -d -1 -p message -e 32 -c 2 -a 0 -i 0 -k RTR
r -t 0.004212304 -s 4 -d -1 -p message -e 32 -c 2 -a 0 -i 0 -k RTR
r -t 0.004212334 -s 9 -d -1 -p message -e 32 -c 2 -a 0 -i 0 -k RTR
+ -t 0.037458776 -s 2 -d -1 -p message -e 32 -c 2 -a 0 -i 1 -k RTR 
- -t 0.037458776 -s 2 -d -1 -p message -e 32 -c 2 -a 0 -i 1 -k RTR
h -t 0.037458776 -s 2 -d -1 -p message -e 32 -c 2 -a 0 -i 1 -k RTR
+ -t 0.037813776 -s 2 -d -1 -p message -e 90 -c 2 -a 0 -i 1 -k MAC 
- -t 0.037813776 -s 2 -d -1 -p message -e 90 -c 2 -a 0 -i 1 -k MAC
h -t 0.037813776 -s 2 -d -1 -p message -e 90 -c 2 -a 0 -i 1 -k MAC
r -t 0.038534369 -s 28 -d -1 -p message -e 32 -c 2 -a 0 -i 1 -k MAC
r -t 0.038534502 -s 20 -d -1 -p message -e 32 -c 2 -a 0 -i 1 -k MAC
r -t 0.038535071 -s 7 -d -1 -p message -e 32 -c 2 -a 0 -i 1 -k MAC
r -t 0.038535088 -s 9 -d -1 -p message -e 32 -c 2 -a 0 -i 1 -k MAC
r -t 0.038559369 -s 28 -d -1 -p message -e 32 -c 2 -a 0 -i 1 -k RTR
r -t 0.038559502 -s 20 -d -1 -p message -e 32 -c 2 -a 0 -i 1 -k RTR
r -t 0.038560071 -s 7 -d -1 -p message -e 32 -c 2 -a 0 -i 1 -k RTR
r -t 0.038560088 -s 9 -d -1 -p message -e 32 -c 2 -a 0 -i 1 -k RTR
+ -t 0.087462768 -s 13 -d -1 -p message -e 32 -c 2 -a 0 -i 2 -k RTR 
- -t 0.087462768 -s 13 -d -1 -p message -e 32 -c 2 -a 0 -i 2 -k RTR
h -t 0.087462768 -s 13 -d -1 -p message -e 32 -c 2 -a 0 -i 2 -k RTR
+ -t 0.087757768 -s 13 -d -1 -p message -e 90 -c 2 -a 0 -i 2 -k MAC 
- -t 0.087757768 -s 13 -d -1 -p message -e 90 -c 2 -a 0 -i 2 -k MAC
h -t 0.087757768 -s 13 -d -1 -p message -e 90 -c 2 -a 0 -i 2 -k MAC
r -t 0.088478275 -s 16 -d -1 -p message -e 32 -c 2 -a 0 -i 2 -k MAC
r -t 0.088478538 -s 23 -d -1 -p message -e 32 -c 2 -a 0 -i 2 -k MAC
r -t 0.088478728 -s 22 -d -1 -p message -e 32 -c 2 -a 0 -i 2 -k MAC
r -t 0.088478932 -s 11 -d -1 -p message -e 32 -c 2 -a 0 -i 2 -k MAC
r -t 0.088479038 -s 10 -d -1 -p message -e 32 -c 2 -a 0 -i 2 -k MAC
r -t 0.088503275 -s 16 -d -1 -p message -e 32 -c 2 -a 0 -i 2 -k RTR
r -t 0.088503538 -s 23 -d -1 -p message -e 32 -c 2 -a 0 -i 2 -k RTR
r -t 0.088503728 -s 22 -d -1 -p message -e 32 -c 2 -a 0 -i 2 -k RTR
r -t 0.088503932 -s 11 -d -1 -p message -e 32 -c 2 -a 0 -i 2 -k RTR
r -t 0.088504038 -s 10 -d -1 -p message -e 32 -c 2 -a 0 -i 2 -k RTR
+ -t 0.177365656 -s 3 -d -1 -p message -e 32 -c 2 -a 0 -i 3 -k RTR 
- -t 0.177365656 -s 3 -d -1 -p message -e 32 -c 2 -a 0 -i 3 -k RTR
h -t 0.177365656 -s 3 -d -1 -p message -e 32 -c 2 -a 0 -i 3 -k RTR
+ -t 0.177560656 -s 3 -d -1 -p message -e 90 -c 2 -a 0 -i 3 -k MAC 
- -t 0.177560656 -s 3 -d -1 -p message -e 90 -c 2 -a 0 -i 3 -k MAC
h -t 0.177560656 -s 3 -d -1 -p message -e 90 -c 2 -a 0 -i 3 -k MAC
r -t 0.178281319 -s 18 -d -1 -p message -e 32 -c 2 -a 0 -i 3 -k MAC
r -t 0.178281401 -s 29 -d -1 -p message -e 32 -c 2 -a 0 -i 3 -k MAC
r -t 0.178281424 -s 1 -d -1 -p message -e 32 -c 2 -a 0 -i 3 -k MAC
r -t 0.178281465 -s 24 -d -1 -p message -e 32 -c 2 -a 0 -i 3 -k MAC
r -t 0.178281784 -s 12 -d -1 -p message -e 32 -c 2 -a 0 -i 3 -k MAC
r -t 0.178281862 -s 26 -d -1 -p message -e 32 -c 2 -a 0 -i 3 -k MAC
r -t 0.178306319 -s 18 -d -1 -p message -e 32 -c 2 -a 0 -i 3 -k RTR
r -t 0.178306401 -s 29 -d -1 -p message -e 32 -c 2 -a 0 -i 3 -k RTR
r -t 0.178306424 -s 1 -d -1 -p message -e 32 -c 2 -a 0 -i 3 -k RTR
r -t 0.178306465 -s 24 -d -1 -p message -e 32 -c 2 -a 0 -i 3 -k RTR
r -t 0.178306784 -s 12 -d -1 -p message -e 32 -c 2 -a 0 -i 3 -k RTR
r -t 0.178306862 -s 26 -d -1 -p message -e 32 -c 2 -a 0 -i 3 -k RTR
+ -t 0.191634337 -s 19 -d -1 -p message -e 32 -c 2 -a 0 -i 4 -k RTR 
- -t 0.191634337 -s 19 -d -1 -p message -e 32 -c 2 -a 0 -i 4 -k RTR
h -t 0.191634337 -s 19 -d -1 -p message -e 32 -c 2 -a 0 -i 4 -k RTR
+ -t 0.191889337 -s 19 -d -1 -p message -e 90 -c 2 -a 0 -i 4 -k MAC 
- -t 0.191889337 -s 19 -d -1 -p message -e 90 -c 2 -a 0 -i 4 -k MAC
h -t 0.191889337 -s 19 -d -1 -p message -e 90 -c 2 -a 0 -i 4 -k MAC
r -t 0.192609823 -s 7 -d -1 -p message -e 32 -c 2 -a 0 -i 4 -k MAC
r -t 0.192609866 -s 21 -d -1 -p message -e 32 -c 2 -a 0 -i 4 -k MAC
r -t 0.192610210 -s 8 -d -1 -p message -e 32 -c 2 -a 0 -i 4 -k MAC
r -t 0.192610217 -s 14 -d -1 -p message -e 32 -c 2 -a 0 -i 4 -k MAC
r -t 0.192610508 -s 6 -d -1 -p message -e 32 -c 2 -a 0 -i 4 -k MAC
r -t 0.192610528 -s 22 -d -1 -p message -e 32 -c 2 -a 0 -i 4 -k MAC
r -t 0.192610565 -s 16 -d -1 -p message -e 32 -c 2 -a 0 -i 4 -k MAC
r -t 0.192610627 -s 4 -d -1 -p message -e 32 -c 2 -a 0 -i 4 -k MAC
r -t 0.192634823 -s 7 -d -1 -p message -e 32 -c 2 -a 0 -i 4 -k RTR
r -t 0.192634866 -s 21 -d -1 -p message -e 32 -c 2 -a 0 -i 4 -k RTR
r -t 0.192635210 -s 8 -d -1 -p message -e 32 -c 2 -a 0 -i 4 -k RTR
r -t 0.192635217 -s 14 -d -1 -p message -e 32 -c 2 -a 0 -i 4 -k RTR
r -t 0.192635508 -s 6 -d -1 -p message -e 32 -c 2 -a 0 -i 4 -k RTR
r -t 0.192635528 -s 22 -d -1 -p message -e 32 -c 2 -a 0 -i 4 -k RTR
r -t 0.192635565 -s 16 -d -1 -p message -e 32 -c 2 -a 0 -i 4 -k RTR
r -t 0.192635627 -s 4 -d -1 -p message -e 32 -c 2 -a 0 -i 4 -k RTR
+ -t 0.234603229 -s 15 -d -1 -p message -e 32 -c 2 -a 0 -i 5 -k RTR 
- -t 0.234603229 -s 15 -d -1 -p message -e 32 -c 2 -a 0 -i 5 -k RTR
h -t 0.234603229 -s 15 -d -1 -p message -e 32 -c 2 -a 0 -i 5 -k RTR
+ -t 0.234898229 -s 15 -d -1 -p message -e 90 -c 2 -a 0 -i 5 -k MAC 
- -t 0.234898229 -s 15 -d -1 -p message -e 90 -c 2 -a 0 -i 5 -k MAC
h -t 0.234898229 -s 15 -d -1 -p message -e 90 -c 2 -a 0 -i 5 -k MAC
r -t 0.235619558 -s 28 -d -1 -p message -e 32 -c 2 -a 0 -i 5 -k MAC
r -t 0.235644558 -s 28 -d -1 -p message -e 32 -c 2 -a 0 -i 5 -k RTR
+ -t 0.333839210 -s 12 -d -1 -p message -e 32 -c 2 -a 0 -i 6 -k RTR 
- -t 0.333839210 -s 12 -d -1 -p message -e 32 -c 2 -a 0 -i 6 -k RTR
h -t 0.333839210 -s 12 -d -1 -p message -e 32 -c 2 -a 0 -i 6 -k RTR
+ -t 0.333994210 -s 12 -d -1 -p message -e 90 -c 2 -a 0 -i 6 -k MAC 
- -t 0.333994210 -s 12 -d -1 -p message -e 90 -c 2 -a 0 -i 6 -k MAC
h -t 0.333994210 -s 12 -d -1 -p message -e 90 -c 2 -a 0 -i 6 -k MAC
r -t 0.334714298 -s 26 -d -1 -p message -e 32 -c 2 -a 0 -i 6 -k MAC
r -t 0.334714723 -s 17 -d -1 -p message -e 32 -c 2 -a 0 -i 6 -k MAC
r -t 0.334715325 -s 10 -d -1 -p message -e 32 -c 2 -a 0 -i 6 -k MAC
r -t 0.334715338 -s 3 -d -1 -p message -e 32 -c 2 -a 0 -i 6 -k MAC
r -t 0.334739298 -s 26 -d -1 -p message -e 32 -c 2 -a 0 -i 6 -k RTR
r -t 0.334739723 -s 17 -d -1 -p message -e 32 -c 2 -a 0 -i 6 -k RTR
r -t 0.334740325 -s 10 -d -1 -p message -e 32 -c 2 -a 0 -i 6 -k RTR
r -t 0.334740338 -s 3 -d -1 -p message -e 32 -c 2 -a 0 -i 6 -k RTR
+ -t 0.351472650 -s 18 -d -1 -p message -e 32 -c 2 -a 0 -i 7 -k RTR 
- -t 0.351472650 -s 18 -d -1 -p message -e 32 -c 2 -a 0 -i 7 -k RTR
h -t 0.351472650 -s 18 -d -1 -p message -e 32 -c 2 -a 0 -i 7 -k RTR
+ -t 0.351847650 -s 18 -d -1 -p message -e 90 -c 2 -a 0 -i 7 -k MAC 
- -t 0.351847650 -s 18 -d -1 -p message -e 90 -c 2 -a 0 -i 7 -k MAC
h -t 0.351847650 -s 18 -d -1 -p message -e 90 -c 2 -a 0 -i 7 -k MAC
r -t 0.352567764 -s 1 -d -1 -p message -e 32 -c 2 -a 0 -i 7 -k MAC
r -t 0.352567803 -s 24 -d -1 -p message -e 32 -c 2 -a 0 -i 7 -k MAC
r -t 0.352568314 -s 3 -d -1 -p message -e 32 -c 2 -a 0 -i 7 -k MAC
r -t 0.352568495 -s 29 -d -1 -p message -e 32 -c 2 -a 0 -i 7 -k MAC
r -t 0.352592764 -s 1 -d -1 -p message -e 32 -c 2 -a 0 -i 7 -k RTR
r -t 0.352592803 -s 24 -d -1 -p message -e 32 -c 2 -a 0 -i 7 -k RTR
r -t 0.352593314 -s 3 -d -1 -p message -e 32 -c 2 -a 0 -i 7 -k RTR
r -t 0.352593495 -s 29 -d -1 -p message -e 32 -c 2 -a 0 -i 7 -k RTR
+ -t 0.436386259 -s 29 -d -1 -p message -e 32 -c 2 -a 0 -i 8 -k RTR 
- -t 0.436386259 -s 29 -d -1 -p message -e 32 -c 2 -a 0 -i 8 -k RTR
h -t 0.436386259 -s 29 -d -1 -p message -e 32 -c 2 -a 0 -i 8 -k RTR
+ -t 0.436701259 -s 29 -d -1 -p message -e 90 -c 2 -a 0 -i 8 -k MAC 
- -t 0.436701259 -s 29 -d -1 -p message -e 90 -c 2 -a 0 -i 8 -k MAC
h -t 0.436701259 -s 29 -d -1 -p message -e 90 -c 2 -a 0 -i 8 -k MAC
r -t 0.437422004 -s 3 -d -1 -p message -e 32 -c 2 -a 0 -i 8 -k MAC
r -t 0.437422104 -s 18 -d -1 -p message -e 32 -c 2 -a 0 -i 8 -k MAC
r -t 0.437422201 -s 1 -d -1 -p message -e 32 -c 2 -a 0 -i 8 -k MAC
r -t 0.437422230 -s 24 -d -1 -p message -e 32 -c 2 -a 0 -i 8 -k MAC
r -t 0.437447004 -s 3 -d -1 -p message -e 32 -c 2 -a 0 -i 8 -k RTR
r -t 0.437447104 -s 18 -d -1 -p message -e 32 -c 2 -a 0 -i 8 -k RTR
r -t 0.437447201 -s 1 -d -1 -p message -e 32 -c 2 -a 0 -i 8 -k RTR
r -t 0.437447230 -s 24 -d -1 -p message -e 32 -c 2 -a 0 -i 8 -k RTR
+ -t 0.470117073 -s 8 -d -1 -p message -e 32 -c 2 -a 0 -i 9 -k RTR 
- -t 0.470117073 -s 8 -d -1 -p message -e 32 -c 2 -a 0 -i 9 -k RTR
h -t 0.470117073 -s 8 -d -1 -p message -e 32 -c 2 -a 0 -i 9 -k RTR
+ -t 0.470652073 -s 8 -d -1 -p message -e 90 -c 2 -a 0 -i 9 -k MAC 
- -t 0.470652073 -s 8 -d -1 -p message -e 90 -c 2 -a 0 -i 9 -k MAC
h -t 0.470652073 -s 8 -d -1 -p message -e 90 -c 2 -a 0 -i 9 -k MAC
r -t 0.471372143 -s 14 -d -1 -p message -e 32 -c 2 -a 0 -i 9 -k MAC
r -t 0.471372554 -s 21 -d -1 -p message -e 32 -c 2 -a 0 -i 9 -k MAC
r -t 0.471372946 -s 19 -d -1 -p message -e 32 -c 2 -a 0 -i 9 -k MAC
r -t 0.471372964 -s 22 -d -1 -p message -e 32 -c 2 -a 0 -i 9 -k MAC
r -t 0.471373082 -s 7 -d -1 -p message -e 32 -c 2 -a 0 -i 9 -k MAC
r -t 0.471397143 -s 14 -d -1 -p message -e 32 -c 2 -a 0 -i 9 -k RTR
r -t 0.471397554 -s 21 -d -1 -p message -e 32 -c 2 -a 0 -i 9 -k RTR
r -t 0.471397946 -s 19 -d -1 -p message -e 32 -c 2 -a 0 -i 9 -k RTR
r -t 0.471397964 -s 22 -d -1 -p message -e 32 -c 2 -a 0 -i 9 -k RTR
r -t 0.471398082 -s 7 -d -1 -p message -e 32 -c 2 -a 0 -i 9 -k RTR
+ -t 0.521504883 -s 22 -d -1 -p message -e 32 -c 2 -a 0 -i 10 -k RTR 
- -t 0.521504883 -s 22 -d -1 -p message -e 32 -c 2 -a 0 -i 10 -k RTR
h -t 0.521504883 -s 22 -d -1 -p message -e 32 -c 2 -a 0 -i 10 -k RTR
+ -t 0.521659883 -s 22 -d -1 -p message -e 90 -c 2 -a 0 -i 10 -k MAC 
- -t 0.521659883 -s 22 -d -1 -p message -e 90 -c 2 -a 0 -i 10 -k MAC
h -t 0.521659883 -s 22 -d -1 -p message -e 90 -c 2 -a 0 -i 10 -k MAC
r -t 0.522380540 -s 16 -d -1 -p message -e 32 -c 2 -a 0 -i 10 -k MAC
r -t 0.522380774 -s 8 -d -1 -p message -e 32 -c 2 -a 0 -i 10 -k MAC
r -t 0.522380843 -s 13 -d -1 -p message -e 32 -c 2 -a 0 -i 10 -k MAC
r -t 0.522380844 -s 14 -d -1 -p message -e 32 -c 2 -a 0 -i 10 -k MAC
r -t 0.522381072 -s 21 -d -1 -p message -e 32 -c 2 -a 0 -i 10 -k MAC
r -t 0.522381074 -s 19 -d -1 -p message -e 32 -c 2 -a 0 -i 10 -k MAC
r -t 0.522405540 -s 16 -d -1 -p message -e 32 -c 2 -a 0 -i 10 -k RTR
r -t 0.522405774 -s 8 -d -1 -p message -e 32 -c 2 -a 0 -i 10 -k RTR
r -t 0.522405843 -s 13 -d -1 -p message -e 32 -c 2 -a 0 -i 10 -k RTR
r -t 0.522405844 -s 14 -d -1 -p message -e 32 -c 2 -a 0 -i 10 -k RTR
r -t 0.522406072 -s 21 -d -1 -p message -e 32 -c 2 -a 0 -i 10 -k RTR
r -t 0.522406074 -s 19 -d -1 -p message -e 32 -c 2 -a 0 -i 10 -k RTR
+ -t 0.556838879 -s 28 -d -1 -p cbr -e 512 -c 2 -a 0 -i 11 -k AGT 
- -t 0.556838879 -s 28 -d -1 -p cbr -e 512 -c 2 -a 0 -i 11 -k AGT
h -t 0.556838879 -s 28 -d -1 -p cbr -e 512 -c 2 -a 0 -i 11 -k AGT
+ -t 0.627186592 -s 10 -d -1 -p message -e 32 -c 2 -a 0 -i 12 -k RTR 
- -t 0.627186592 -s 10 -d -1 -p message -e 32 -c 2 -a 0 -i 12 -k RTR
h -t 0.627186592 -s 10 -d -1 -p message -e 32 -c 2 -a 0 -i 12 -k RTR
+ -t 0.627321592 -s 10 -d -1 -p message -e 90 -c 2 -a 0 -i 12 -k MAC 
- -t 0.627321592 -s 10 -d -1 -p message -e 90 -c 2 -a 0 -i 12 -k MAC
h -t 0.627321592 -s 10 -d -1 -p message -e 90 -c 2 -a 0 -i 12 -k MAC
r -t 0.628042113 -s 23 -d -1 -p message -e 32 -c 2 -a 0 -i 12 -k MAC
r -t 0.628042504 -s 17 -d -1 -p message -e 32 -c 2 -a 0 -i 12 -k MAC
r -t 0.628042632 -s 25 -d -1 -p message -e 32 -c 2 -a 0 -i 12 -k MAC
r -t 0.628042656 -s 26 -d -1 -p message -e 32 -c 2 -a 0 -i 12 -k MAC
r -t 0.628042674 -s 4 -d -1 -p message -e 32 -c 2 -a 0 -i 12 -k MAC
r -t 0.628042707 -s 12 -d -1 -p message -e 32 -c 2 -a 0 -i 12 -k MAC
r -t 0.628042724 -s 11 -d -1 -p message -e 32 -c 2 -a 0 -i 12 -k MAC
r -t 0.628042863 -s 13 -d -1 -p message -e 32 -c 2 -a 0 -i 12 -k MAC
r -t 0.628042877 -s 16 -d -1 -p message -e 32 -c 2 -a 0 -i 12 -k MAC
r -t 0.628067113 -s 23 -d -1 -p message -e 32 -c 2 -a 0 -i 12 -k RTR
r -t 0.628067504 -s 17 -d -1 -p message -e 32 -c 2 -a 0 -i 12 -k RTR
r -t 0.628067632 -s 25 -d -1 -p message -e 32 -c 2 -a 0 -i 12 -k RTR
r -t 0.628067656 -s 26 -d -1 -p message -e 32 -c 2 -a 0 -i 12 -k RTR
r -t 0.628067674 -s 4 -d -1 -p message -e 32 -c 2 -a 0 -i 12 -k RTR
r -t 0.628067707 -s 12 -d -1 -p message -e 32 -c 2 -a 0 -i 12 -k RTR
r -t 0.628067724 -s 11 -d -1 -p message -e 32 -c 2 -a 0 -i 12 -k RTR
r -t 0.628067863 -s 13 -d -1 -p message -e 32 -c 2 -a 0 -i 12 -k RTR
r -t 0.628067877 -s 16 -d -1 -p message -e 32 -c 2 -a 0 -i 12 -k RTR
+ -t 0.634670006 -s 6 -d -1 -p message -e 32 -c 2 -a 0 -i 13 -k RTR 
- -t 0.634670006 -s 6 -d -1 -p message -e 32 -c 2 -a 0 -i 13 -k RTR
h -t 0.634670006 -s 6 -d -1 -p message -e 32 -c 2 -a 0 -i 13 -k RTR
+ -t 0.634865006 -s 6 -d -1 -p message -e 90 -c 2 -a 0 -i 13 -k MAC 
- -t 0.634865006 -s 6 -d -1 -p message -e 90 -c 2 -a 0 -i 13 -k MAC
h -t 0.634865006 -s 6 -d -1 -p message -e 90 -c 2 -a 0 -i 13 -k MAC
r -t 0.635585669 -s 4 -d -1 -p message -e 32 -c 2 -a 0 -i 13 -k MAC
r -t 0.635585675 -s 0 -d -1 -p message -e 32 -c 2 -a 0 -i 13 -k MAC
r -t 0.635585747 -s 25 -d -1 -p message -e 32 -c 2 -a 0 -i 13 -k MAC
r -t 0.635586145 -s 9 -d -1 -p message -e 32 -c 2 -a 0 -i 13 -k MAC
r -t 0.635586178 -s 19 -d -1 -p message -e 32 -c 2 -a 0 -i 13 -k MAC
r -t 0.635586246 -s 7 -d -1 -p message -e 32 -c 2 -a 0 -i 13 -k MAC
r -t 0.635610669 -s 4 -d -1 -p message -e 32 -c 2 -a 0 -i 13 -k RTR
r -t 0.635610675 -s 0 -d -1 -p message -e 32 -c 2 -a 0 -i 13 -k RTR
r -t 0.635610747 -s 25 -d -1 -p message -e 32 -c 2 -a 0 -i 13 -k RTR
r -t 0.635611145 -s 9 -d -1 -p message -e 32 -c 2 -a 0 -i 13 -k RTR
r -t 0.635611178 -s 19 -d -1 -p message -e 32 -c 2 -a 0 -i 13 -k RTR
r -t 0.635611246 -s 7 -d -1 -p message -e 32 -c 2 -a 0 -i 13 -k RTR
+ -t 0.705637875 -s 21 -d -1 -p message -e 32 -c 2 -a 0 -i 14 -k RTR 
- -t 0.705637875 -s 21 -d -1 -p message -e 32 -c 2 -a 0 -i 14 -k RTR
h -t 0.705637875 -s 21 -d -1 -p message -e 32 -c 2 -a 0 -i 14 -k RTR
+ -t 0.706012875 -s 21 -d -1 -p message -e 90 -c 2 -a 0 -i 14 -k MAC 
- -t 0.706012875 -s 21 -d -1 -p message -e 90 -c 2 -a 0 -i 14 -k MAC
h -t 0.706012875 -s 21 -d -1 -p message -e 90 -c 2 -a 0 -i 14 -k MAC
r -t 0.706733327 -s 14 -d -1 -p message -e 32 -c 2 -a 0 -i 14 -k MAC
r -t 0.706733356 -s 8 -d -1 -p message -e 32 -c 2 -a 0 -i 14 -k MAC
r -t 0.706733403 -s 19 -d -1 -p message -e 32 -c 2 -a 0 -i 14 -k MAC
r -t 0.706733404 -s 7 -d -1 -p message -e 32 -c 2 -a 0 -i 14 -k MAC
r -t 0.706734063 -s 22 -d -1 -p message -e 32 -c 2 -a 0 -i 14 -k MAC
r -t 0.706758327 -s 14 -d -1 -p message -e 32 -c 2 -a 0 -i 14 -k RTR
r -t 0.706758356 -s 8 -d -1 -p message -e 32 -c 2 -a 0 -i 14 -k RTR
r -t 0.706758403 -s 19 -d -1 -p message -e 32 -c 2 -a 0 -i 14 -k RTR
r -t 0.706758404 -s 7 -d -1 -p message -e 32 -c 2 -a 0 -i 14 -k RTR
r -t 0.706759063 -s 22 -d -1 -p message -e 32 -c 2 -a 0 -i 14 -k RTR
+ -t 0.821435127 -s 23 -d -1 -p message -e 32 -c 2 -a 0 -i 15 -k RTR 
- -t 0.821435127 -s 23 -d -1 -p message -e 32 -c 2 -a 0 -i 15 -k RTR
h -t 0.821435127 -s 23 -d -1 -p message -e 32 -c 2 -a 0 -i 15 -k RTR
+ -t 0.821550127 -s 23 -d -1 -p message -e 90 -c 2 -a 0 -i 15 -k MAC 
- -t 0.821550127 -s 23 -d -1 -p message -e 90 -c 2 -a 0 -i 15 -k MAC
h -t 0.821550127 -s 23 -d -1 -p message -e 90 -c 2 -a 0 -i 15 -k MAC
r -t 0.822270648 -s 10 -d -1 -p message -e 32 -c 2 -a 0 -i 15 -k MAC
r -t 0.822270897 -s 13 -d -1 -p message -e 32 -c 2 -a 0 -i 15 -k MAC
r -t 0.822270906 -s 16 -d -1 -p message -e 32 -c 2 -a 0 -i 15 -k MAC
r -t 0.822271199 -s 11 -d -1 -p message -e 32 -c 2 -a 0 -i 15 -k MAC
r -t 0.822271307 -s 4 -d -1 -p message -e 32 -c 2 -a 0 -i 15 -k MAC
r -t 0.822271332 -s 25 -d -1 -p message -e 32 -c 2 -a 0 -i 15 -k MAC
r -t 0.822271366 -s 17 -d -1 -p message -e 32 -c 2 -a 0 -i 15 -k MAC
r -t 0.822295648 -s 10 -d -1 -p message -e 32 -c 2 -a 0 -i 15 -k RTR
r -t 0.822295897 -s 13 -d -1 -p message -e 32 -c 2 -a 0 -i 15 -k RTR
r -t 0.822295906 -s 16 -d -1 -p message -e 32 -c 2 -a 0 -i 15 -k RTR
r -t 0.822296199 -s 11 -d -1 -p message -e 32 -c 2 -a 0 -i 15 -k RTR
r -t 0.822296307 -s 4 -d -1 -p message -e 32 -c 2 -a 0 -i 15 -k RTR
r -t 0.822296332 -s 25 -d -1 -p message -e 32 -c 2 -a 0 -i 15 -k RTR
r -t 0.822296366 -s 17 -d -1 -p message -e 32 -c 2 -a 0 -i 15 -k RTR
+ -t 0.848147771 -s 17 -d -1 -p message -e 32 -c 2 -a 0 -i 16 -k RTR 
- -t 0.848147771 -s 17 -d -1 -p message -e 32 -c 2 -a 0 -i 16 -k RTR
h -t 0.848147771 -s 17 -d -1 -p message -e 32 -c 2 -a 0 -i 16 -k RTR
+ -t 0.848382771 -s 17 -d -1 -p message -e 90 -c 2 -a 0 -i 16 -k MAC 
- -t 0.848382771 -s 17 -d -1 -p message -e 90 -c 2 -a 0 -i 16 -k MAC
h -t 0.848382771 -s 17 -d -1 -p message -e 90 -c 2 -a 0 -i 16 -k MAC
r -t 0.849103196 -s 26 -d -1 -p message -e 32 -c 2 -a 0 -i 16 -k MAC
r -t 0.849103284 -s 12 -d -1 -p message -e 32 -c 2 -a 0 -i 16 -k MAC
r -t 0.849103612 -s 11 -d -1 -p message -e 32 -c 2 -a 0 -i 16 -k MAC
r -t 0.849103684 -s 10 -d -1 -p message -e 32 -c 2 -a 0 -i 16 -k MAC
r -t 0.849104010 -s 23 -d -1 -p message -e 32 -c 2 -a 0 -i 16 -k MAC
r -t 0.849128196 -s 26 -d -1 -p message -e 32 -c 2 -a 0 -i 16 -k RTR
r -t 0.849128284 -s 12 -d -1 -p message -e 32 -c 2 -a 0 -i 16 -k RTR
r -t 0.849128612 -s 11 -d -1 -p message -e 32 -c 2 -a 0 -i 16 -k RTR
r -t 0.849128684 -s 10 -d -1 -p message -e 32 -c 2 -a 0 -i 16 -k RTR
r -t 0.849129010 -s 23 -d -1 -p message -e 32 -c 2 -a 0 -i 16 -k RTR
+ -t 0.882674688 -s 4 -d -1 -p message -e 32 -c 2 -a 0 -i 17 -k RTR 
- -t 0.882674688 -s 4 -d -1 -p message -e 32 -c 2 -a 0 -i 17 -k RTR
h -t 0.882674688 -s 4 -d -1 -p message -e 32 -c 2 -a 0 -i 17 -k RTR
+ -t 0.882909688 -s 4 -d -1 -p message -e 90 -c 2 -a 0 -i 17 -k MAC 
- -t 0.882909688 -s 4 -d -1 -p message -e 90 -c 2 -a 0 -i 17 -k MAC
h -t 0.882909688 -s 4 -d -1 -p message -e 90 -c 2 -a 0 -i 17 -k MAC
r -t 0.883629838 -s 25 -d -1 -p message -e 32 -c 2 -a 0 -i 17 -k MAC
r -t 0.883630350 -s 6 -d -1 -p message -e 32 -c 2 -a 0 -i 17 -k MAC
r -t 0.883630581 -s 0 -d -1 -p message -e 32 -c 2 -a 0 -i 17 -k MAC
r -t 0.883630770 -s 10 -d -1 -p message -e 32 -c 2 -a 0 -i 17 -k MAC
r -t 0.883630867 -s 23 -d -1 -p message -e 32 -c 2 -a 0 -i 17 -k MAC
r -t 0.883630978 -s 19 -d -1 -p message -e 32 -c 2 -a 0 -i 17 -k MAC
r -t 0.883654838 -s 25 -d -1 -p message -e 32 -c 2 -a 0 -i 17 -k RTR
r -t 0.883655350 -s 6 -d -1 -p message -e 32 -c 2 -a 0 -i 17 -k RTR
r -t 0.883655581 -s 0 -d -1 -p message -e 32 -c 2 -a 0 -i 17 -k RTR
r -t 0.883655770 -s 10 -d -1 -p message -e 32 -c 2 -a 0 -i 17 -k RTR
r -t 0.883655867 -s 23 -d -1 -p message -e 32 -c 2 -a 0 -i 17 -k RTR
r -t 0.883655978 -s 19 -d -1 -p message -e 32 -c 2 -a 0 -i 17 -k RTR
+ -t 0.935449221 -s 25 -d -1 -p message -e 32 -c 2 -a 0 -i 18 -k RTR 
- -t 0.935449221 -s 25 -d -1 -p message -e 32 -c 2 -a 0 -i 18 -k RTR
h -t 0.935449221 -s 25 -d -1 -p message -e 32 -c 2 -a 0 -i 18 -k RTR
+ -t 0.935884221 -s 25 -d -1 -p message -e 90 -c 2 -a 0 -i 18 -k MAC 
- -t 0.935884221 -s 25 -d -1 -p message -e 90 -c 2 -a 0 -i 18 -k MAC
h -t 0.935884221 -s 25 -d -1 -p message -e 90 -c 2 -a 0 -i 18 -k MAC
r -t 0.936604372 -s 4 -d -1 -p message -e 32 -c 2 -a 0 -i 18 -k MAC
r -t 0.936604961 -s 6 -d -1 -p message -e 32 -c 2 -a 0 -i 18 -k MAC
r -t 0.936605068 -s 0 -d -1 -p message -e 32 -c 2 -a 0 -i 18 -k MAC
r -t 0.936605260 -s 10 -d -1 -p message -e 32 -c 2 -a 0 -i 18 -k MAC
r -t 0.936605425 -s 23 -d -1 -p message -e 32 -c 2 -a 0 -i 18 -k MAC
r -t 0.936629372 -s 4 -d -1 -p message -e 32 -c 2 -a 0 -i 18 -k RTR
r -t 0.936629961 -s 6 -d -1 -p message -e 32 -c 2 -a 0 -i 18 -k RTR
r -t 0.936630068 -s 0 -d -1 -p message -e 32 -c 2 -a 0 -i 18 -k RTR
r -t 0.936630260 -s 10 -d -1 -p message -e 32 -c 2 -a 0 -i 18 -k RTR
r -t 0.936630425 -s 23 -d -1 -p message -e 32 -c 2 -a 0 -i 18 -k RTR
+ -t 1.039009780 -s 24 -d -1 -p message -e 32 -c 2 -a 0 -i 19 -k RTR 
- -t 1.039009780 -s 24 -d -1 -p message -e 32 -c 2 -a 0 -i 19 -k RTR
h -t 1.039009780 -s 24 -d -1 -p message -e 32 -c 2 -a 0 -i 19 -k RTR
+ -t 1.039404780 -s 24 -d -1 -p message -e 90 -c 2 -a 0 -i 19 -k MAC 
- -t 1.039404780 -s 24 -d -1 -p message -e 90 -c 2 -a 0 -i 19 -k MAC
h -t 1.039404780 -s 24 -d -1 -p message -e 90 -c 2 -a 0 -i 19 -k MAC
r -t 1.040124821 -s 1 -d -1 -p message -e 32 -c 2 -a 0 -i 19 -k MAC
r -t 1.040124933 -s 18 -d -1 -p message -e 32 -c 2 -a 0 -i 19 -k MAC
r -t 1.040125589 -s 3 -d -1 -p message -e 32 -c 2 -a 0 -i 19 -k MAC
r -t 1.040125751 -s 29 -d -1 -p message -e 32 -c 2 -a 0 -i 19 -k MAC
r -t 1.040149821 -s 1 -d -1 -p message -e 32 -c 2 -a 0 -i 19 -k RTR
r -t 1.040149933 -s 18 -d -1 -p message -e 32 -c 2 -a 0 -i 19 -k RTR
r -t 1.040150589 -s 3 -d -1 -p message -e 32 -c 2 -a 0 -i 19 -k RTR
r -t 1.040150751 -s 29 -d -1 -p message -e 32 -c 2 -a 0 -i 19 -k RTR
+ -t 1.119657716 -s 1 -d -1 -p message -e 32 -c 2 -a 0 -i 20 -k RTR 
- -t 1.119657716 -s 1 -d -1 -p message -e 32 -c 2 -a 0 -i 20 -k RTR
h -t 1.119657716 -s 1 -d -1 -p message -e 32 -c 2 -a 0 -i 20 -k RTR
+ -t 1.119832716 -s 1 -d -1 -p message -e 90 -c 2 -a 0 -i 20 -k MAC 
- -t 1.119832716 -s 1 -d -1 -p message -e 90 -c 2 -a 0 -i 20 -k MAC
h -t 1.119832716 -s 1 -d -1 -p message -e 90 -c 2 -a 0 -i 20 -k MAC
r -t 1.120552756 -s 24 -d -1 -p message -e 32 -c 2 -a 0 -i 20 -k MAC
r -t 1.120552829 -s 18 -d -1 -p message -e 32 -c 2 -a 0 -i 20 -k MAC
r -t 1.120553484 -s 3 -d -1 -p message -e 32 -c 2 -a 0 -i 20 -k MAC
r -t 1.120553658 -s 29 -d -1 -p message -e 32 -c 2 -a 0 -i 20 -k MAC
r -t 1.120577756 -s 24 -d -1 -p message -e 32 -c 2 -a 0 -i 20 -k RTR
r -t 1.120577829 -s 18 -d -1 -p message -e 32 -c 2 -a 0 -i 20 -k RTR
r -t 1.120578484 -s 3 -d -1 -p message -e 32 -c 2 -a 0 -i 20 -k RTR
r -t 1.120578658 -s 29 -d -1 -p message -e 32 -c 2 -a 0 -i 20 -k RTR
+ -t 1.277890258 -s 9 -d -1 -p message -e 32 -c 2 -a 0 -i 21 -k RTR 
- -t 1.277890258 -s 9 -d -1 -p message -e 32 -c 2 -a 0 -i 21 -k RTR
h -t 1.277890258 -s 9 -d -1 -p message -e 32 -c 2 -a 0 -i 21 -k RTR
+ -t 1.278565258 -s 9 -d -1 -p message -e 90 -c 2 -a 0 -i 21 -k MAC 
- -t 1.278565258 -s 9 -d -1 -p message -e 90 -c 2 -a 0 -i 21 -k MAC
h -t 1.278565258 -s 9 -d -1 -p message -e 90 -c 2 -a 0 -i 21 -k MAC
r -t 1.279285972 -s 20 -d -1 -p message -e 32 -c 2 -a 0 -i 21 -k MAC
r -t 1.279286117 -s 5 -d -1 -p message -e 32 -c 2 -a 0 -i 21 -k MAC
r -t 1.279286181 -s 0 -d -1 -p message -e 32 -c 2 -a 0 -i 21 -k MAC
r -t 1.279286397 -s 6 -d -1 -p message -e 32 -c 2 -a 0 -i 21 -k MAC
r -t 1.279286571 -s 2 -d -1 -p message -e 32 -c 2 -a 0 -i 21 -k MAC
r -t 1.279310972 -s 20 -d -1 -p message -e 32 -c 2 -a 0 -i 21 -k RTR
r -t 1.279311117 -s 5 -d -1 -p message -e 32 -c 2 -a 0 -i 21 -k RTR
r -t 1.279311181 -s 0 -d -1 -p message -e 32 -c 2 -a 0 -i 21 -k RTR
r -t 1.279311397 -s 6 -d -1 -p message -e 32 -c 2 -a 0 -i 21 -k RTR
r -t 1.279311571 -s 2 -d -1 -p message -e 32 -c 2 -a 0 -i 21 -k RTR
+ -t 1.281327089 -s 14 -d -1 -p message -e 32 -c 2 -a 0 -i 22 -k RTR 
- -t 1.281327089 -s 14 -d -1 -p message -e 32 -c 2 -a 0 -i 22 -k RTR
h -t 1.281327089 -s 14 -d -1 -p message -e 32 -c 2 -a 0 -i 22 -k RTR
+ -t 1.281462089 -s 14 -d -1 -p message -e 90 -c 2 -a 0 -i 22 -k MAC 
- -t 1.281462089 -s 14 -d -1 -p message -e 90 -c 2 -a 0 -i 22 -k MAC
h -t 1.281462089 -s 14 -d -1 -p message -e 90 -c 2 -a 0 -i 22 -k MAC
r -t 1.282182159 -s 8 -d -1 -p message -e 32 -c 2 -a 0 -i 22 -k MAC
r -t 1.282182542 -s 21 -d -1 -p message -e 32 -c 2 -a 0 -i 22 -k MAC
r -t 1.282182969 -s 19 -d -1 -p message -e 32 -c 2 -a 0 -i 22 -k MAC
r -t 1.282183051 -s 22 -d -1 -p message -e 32 -c 2 -a 0 -i 22 -k MAC
r -t 1.282183071 -s 7 -d -1 -p message -e 32 -c 2 -a 0 -i 22 -k MAC
r -t 1.282207159 -s 8 -d -1 -p message -e 32 -c 2 -a 0 -i 22 -k RTR
r -t 1.282207542 -s 21 -d -1 -p message -e 32 -c 2 -a 0 -i 22 -k RTR
r -t 1.282207969 -s 19 -d -1 -p message -e 32 -c 2 -a 0 -i 22 -k RTR
r -t 1.282208051 -s 22 -d -1 -p message -e 32 -c 2 -a 0 -i 22 -k RTR
r -t 1.282208071 -s 7 -d -1 -p message -e 32 -c 2 -a 0 -i 22 -k RTR
+ -t 1.388842989 -s 26 -d -1 -p message -e 32 -c 2 -a 0 -i 23 -k RTR 
- -t 1.388842989 -s 26 -d -1 -p message -e 32 -c 2 -a 0 -i 23 -k RTR
h -t 1.388842989 -s 26 -d -1 -p message -e 32 -c 2 -a 0 -i 23 -k RTR
+ -t 1.389297989 -s 26 -d -1 -p message -e 90 -c 2 -a 0 -i 23 -k MAC 
- -t 1.389297989 -s 26 -d -1 -p message -e 90 -c 2 -a 0 -i 23 -k MAC
h -t 1.389297989 -s 26 -d -1 -p message -e 90 -c 2 -a 0 -i 23 -k MAC
r -t 1.390018077 -s 12 -d -1 -p message -e 32 -c 2 -a 0 -i 23 -k MAC