M 0.0 nn 40 x 1700 y 1700 rp DSDV
M 0.0 sc dsdv-update.tcl cp trafic seed 1.0
M 0.0 prop Propagation/TwoRayGround ant Antenna/OmniAntenna
M 0.00000 0 (1038.48, 215.57, 0.00), (1038.48, 215.57), 0.00
M 0.00000 1 (643.60, 570.01, 0.00), (643.60, 570.01), 0.00
M 0.00000 2 (1027.33, 855.29, 0.00), (1027.33, 855.29), 0.00
M 0.00000 3 (603.95, 393.91, 0.00), (603.95, 393.91), 0.00
M 0.00000 4 (1083.68, 490.18, 0.00), (1083.68, 490.18), 0.00
M 0.00000 5 (632.29, 886.42, 0.00), (632.29, 886.42), 0.00
M 0.00000 6 (49.47, 923.37, 0.00), (49.47, 923.37), 0.00
M 0.00000 7 (1005.75, 1285.23, 0.00), (1005.75, 1285.23), 0.00
M 0.00000 8 (1099.36, 1370.01, 0.00), (1099.36, 1370.01), 0.00
M 0.00000 9 (843.68, 258.66, 0.00), (843.68, 258.66), 0.00
M 0.00000 10 (313.30, 150.81, 0.00), (313.30, 150.81), 0.00
M 0.00000 11 (349.82, 1146.47, 0.00), (349.82, 1146.47), 0.00
M 0.00000 12 (1170.06, 683.91, 0.00), (1170.06, 683.91), 0.00
M 0.00000 13 (1159.56, 611.72, 0.00), (1159.56, 611.72), 0.00
M 0.00000 14 (335.18, 1143.01, 0.00), (335.18, 1143.01), 0.00
M 0.00000 15 (796.25, 805.97, 0.00), (796.25, 805.97), 0.00
M 0.00000 16 (661.03, 1104.34, 0.00), (661.03, 1104.34), 0.00
M 0.00000 17 (518.58, 538.14, 0.00), (518.58, 538.14), 0.00
M 0.00000 18 (1091.72, 1103.89, 0.00), (1091.72, 1103.89), 0.00
M 0.00000 19 (234.34, 325.87, 0.00), (234.34, 325.87), 0.00
M 0.00000 20 (699.53, 311.67, 0.00), (699.53, 311.67), 0.00
M 0.00000 21 (1434.17, 1133.91, 0.00), (1434.17, 1133.91), 0.00
M 0.00000 22 (539.96, 441.41, 0.00), (539.96, 441.41), 0.00
M 0.00000 23 (205.45, 296.25, 0.00), (205.45, 296.25), 0.00
M 0.00000 24 (559.88, 157.53, 0.00), (559.88, 157.53), 0.00
M 0.00000 25 (12.21, 1366.05, 0.00), (12.21, 1366.05), 0.00
M 0.00000 26 (1147.49, 548.78, 0.00), (1147.49, 548.78), 0.00
M 0.00000 27 (136.28, 825.21, 0.00), (136.28, 825.21), 0.00
M 0.00000 28 (791.02, 531.65, 0.00), (791.02, 531.65), 0.00
M 0.00000 29 (666.75, 1407.62, 0.00), (666.75, 1407.62), 0.00
M 0.00000 30 (859.64, 954.81, 0.00), (859.64, 954.81), 0.00
M 0.00000 31 (495.16, 282.59, 0.00), (495.16, 282.59), 0.00
M 0.00000 32 (728.59, 61.81, 0.00), (728.59, 61.81), 0.00
M 0.00000 33 (879.43, 121.83, 0.00), (879.43, 121.83), 0.00
M 0.00000 34 (783.93, 1284.44, 0.00), (783.93, 1284.44), 0.00
M 0.00000 35 (367.16, 406.13, 0.00), (367.16, 406.13), 0.00
M 0.00000 0 (1038.48, 215.57, 0.00), (1038.48, 215.57), 15.75
M 0.00000 1 (643.60, 570.01, 0.00), (643.60, 570.01), 27.47
s 0.010141804 _0_ RTR  --- 0 message 32 [0 0 0 0] ------- [0:255 -1:255 32 0] 
s 0.010796804 _0_ MAC  --- 0 message 90 [0 ffffffff 0 800] ------- [0:255 -1:255 32 0] 
r 0.011517419 _33_ MAC  --- 0 message 32 [0 ffffffff 0 800] ------- [0:255 -1:255 32 0] 
r 0.011517469 _9_ MAC  --- 0 message 32 [0 ffffffff 0 800] ------- [0:255 -1:255 32 0] 
r 0.011517534 _39_ MAC  --- 0 message 32 [0 ffffffff 0 800] ------- [0:255 -1:255 32 0] 
r 0.011517732 _4_ MAC  --- 0 message 32 [0 ffffffff 0 800] ------- [0:255 -1:255 32 0] 
r 0.011517957 _32_ MAC  --- 0 message 32 [0 ffffffff 0 800] ------- [0:255 -1:255 32 0] 
r 0.011517973 _26_ MAC  --- 0 message 32 [0 ffffffff 0 800] ------- [0:255 -1:255 32 0] 
r 0.011517978 _20_ MAC  --- 0 message 32 [0 ffffffff 0 800] ------- [0:255 -1:255 32 0] 
r 0.011542419 _33_ RTR  --- 0 message 32 [0 ffffffff 0 800] ------- [0:255 -1:255 32 0] 
r 0.011542469 _9_ RTR  --- 0 message 32 [0 ffffffff 0 800] ------- [0:255 -1:255 32 0] 
r 0.011542534 _39_ RTR  --- 0 message 32 [0 ffffffff 0 800] ------- [0:255 -1:255 32 0] 
r 0.011542732 _4_ RTR  --- 0 message 32 [0 ffffffff 0 800] ------- [0:255 -1:255 32 0] 
r 0.011542957 _32_ RTR  --- 0 message 32 [0 ffffffff 0 800] ------- [0:255 -1:255 32 0] 
r 0.011542973 _26_ RTR  --- 0 message 32 [0 ffffffff 0 800] ------- [0:255 -1:255 32 0] 
r 0.011542978 _20_ RTR  --- 0 message 32 [0 ffffffff 0 800] ------- [0:255 -1:255 32 0] 
s 0.028517405 _2_ RTR  --- 1 message 32 [0 0 0 0] ------- [2:255 -1:255 32 0] 
s 0.029092405 _2_ MAC  --- 1 message 90 [0 ffffffff 2 800] ------- [2:255 -1:255 32 0] 
r 0.029813055 _30_ MAC  --- 1 message 32 [0 ffffffff 2 800] ------- [2:255 -1:255 32 0] 
r 0.029813148 _12_ MAC  --- 1 message 32 [0 ffffffff 2 800] ------- [2:255 -1:255 32 0] 
r 0.029813192 _15_ MAC  --- 1 message 32 [0 ffffffff 2 800] ------- [2:255 -1:255 32 0] 
r 0.029813261 _18_ MAC  --- 1 message 32 [0 ffffffff 2 800] ------- [2:255 -1:255 32 0] 
r 0.029813329 _13_ MAC  --- 1 message 32 [0 ffffffff 2 800] ------- [2:255 -1:255 32 0] 
r 0.029813502 _26_ MAC  --- 1 message 32 [0 ffffffff 2 800] ------- [2:255 -1:255 32 0] 
r 0.029813636 _4_ MAC  --- 1 message 32 [0 ffffffff 2 800] ------- [2:255 -1:255 32 0] 
r 0.029813726 _5_ MAC  --- 1 message 32 [0 ffffffff 2 800] ------- [2:255 -1:255 32 0] 
r 0.029838055 _30_ RTR  --- 1 message 32 [0 ffffffff 2 800] ------- [2:255 -1:255 32 0] 
r 0.029838148 _12_ RTR  --- 1 message 32 [0 ffffffff 2 800] ------- [2:255 -1:255 32 0] 
r 0.029838192 _15_ RTR  --- 1 message 32 [0 ffffffff 2 800] ------- [2:255 -1:255 32 0] 
r 0.029838261 _18_ RTR  --- 1 message 32 [0 ffffffff 2 800] ------- [2:255 -1:255 32 0] 
r 0.029838329 _13_ RTR  --- 1 message 32 [0 ffffffff 2 800] ------- [2:255 -1:255 32 0] 
r 0.029838502 _26_ RTR  --- 1 message 32 [0 ffffffff 2 800] ------- [2:255 -1:255 32 0] 
r 0.029838636 _4_ RTR  --- 1 message 32 [0 ffffffff 2 800] ------- [2:255 -1:255 32 0] 
r 0.029838726 _5_ RTR  --- 1 message 32 [0 ffffffff 2 800] ------- [2:255 -1:255 32 0] 
s 0.092275354 _13_ RTR  --- 2 message 32 [0 0 0 0] ------- [13:255 -1:255 32 0] 
s 0.092830354 _13_ MAC  --- 2 message 90 [0 ffffffff d 800] ------- [13:255 -1:255 32 0] 
r 0.093550568 _26_ MAC  --- 2 message 32 [0 ffffffff d 800] ------- [13:255 -1:255 32 0] 
r 0.093550598 _12_ MAC  --- 2 message 32 [0 ffffffff d 800] ------- [13:255 -1:255 32 0] 
r 0.093550832 _4_ MAC  --- 2 message 32 [0 ffffffff d 800] ------- [13:255 -1:255 32 0] 
r 0.093551278 _2_ MAC  --- 2 message 32 [0 ffffffff d 800] ------- [13:255 -1:255 32 0] 
r 0.093551612 _28_ MAC  --- 2 message 32 [0 ffffffff d 800] ------- [13:255 -1:255 32 0] 
r 0.093575568 _26_ RTR  --- 2 message 32 [0 ffffffff d 800] ------- [13:255 -1:255 32 0] 
r 0.093575598 _12_ RTR  --- 2 message 32 [0 ffffffff d 800] ------- [13:255 -1:255 32 0] 
r 0.093575832 _4_ RTR  --- 2 message 32 [0 ffffffff d 800] ------- [13:255 -1:255 32 0] 
r 0.093576278 _2_ RTR  --- 2 message 32 [0 ffffffff d 800] ------- [13:255 -1:255 32 0] 
r 0.093576612 _28_ RTR  --- 2 message 32 [0 ffffffff d 800] ------- [13:255 -1:255 32 0] 
s 0.185011899 _3_ RTR  --- 3 message 32 [0 0 0 0] ------- [3:255 -1:255 32 0] 
s 0.185246899 _3_ MAC  --- 3 message 90 [0 ffffffff 3 800] ------- [3:255 -1:255 32 0] 
r 0.185967165 _22_ MAC  --- 3 message 32 [0 ffffffff 3 800] ------- [3:255 -1:255 32 0] 
r 0.185967320 _20_ MAC  --- 3 message 32 [0 ffffffff 3 800] ------- [3:255 -1:255 32 0] 
r 0.185967418 _31_ MAC  --- 3 message 32 [0 ffffffff 3 800] ------- [3:255 -1:255 32 0] 
r 0.185967458 _17_ MAC  --- 3 message 32 [0 ffffffff 3 800] ------- [3:255 -1:255 32 0] 
r 0.185967501 _1_ MAC  --- 3 message 32 [0 ffffffff 3 800] ------- [3:255 -1:255 32 0] 
r 0.185967674 _28_ MAC  --- 3 message 32 [0 ffffffff 3 800] ------- [3:255 -1:255 32 0] 
r 0.185967690 _35_ MAC  --- 3 message 32 [0 ffffffff 3 800] ------- [3:255 -1:255 32 0] 
r 0.185967701 _24_ MAC  --- 3 message 32 [0 ffffffff 3 800] ------- [3:255 -1:255 32 0] 
r 0.185967817 _9_ MAC  --- 3 message 32 [0 ffffffff 3 800] ------- [3:255 -1:255 32 0] 
r 0.185968082 _32_ MAC  --- 3 message 32 [0 ffffffff 3 800] ------- [3:255 -1:255 32 0] 
r 0.185968152 _19_ MAC  --- 3 message 32 [0 ffffffff 3 800] ------- [3:255 -1:255 32 0] 
r 0.185968162 _10_ MAC  --- 3 message 32 [0 ffffffff 3 800] ------- [3:255 -1:255 32 0] 
r 0.185968190 _33_ MAC  --- 3 message 32 [0 ffffffff 3 800] ------- [3:255 -1:255 32 0] 
r 0.185992165 _22_ RTR  --- 3 message 32 [0 ffffffff 3 800] ------- [3:255 -1:255 32 0] 
r 0.185992320 _20_ RTR  --- 3 message 32 [0 ffffffff 3 800] ------- [3:255 -1:255 32 0] 
r 0.185992418 _31_ RTR  --- 3 message 32 [0 ffffffff 3 800] ------- [3:255 -1:255 32 0] 
r 0.185992458 _17_ RTR  --- 3 message 32 [0 ffffffff 3 800] ------- [3:255 -1:255 32 0] 
r 0.185992501 _1_ RTR  --- 3 message 32 [0 ffffffff 3 800] ------- [3:255 -1:255 32 0] 
r 0.185992674 _28_ RTR  --- 3 message 32 [0 ffffffff 3 800] ------- [3:255 -1:255 32 0] 
r 0.185992690 _35_ RTR  --- 3 message 32 [0 ffffffff 3 800] ------- [3:255 -1:255 32 0] 
r 0.185992701 _24_ RTR  --- 3 message 32 [0 ffffffff 3 800] ------- [3:255 -1:255 32 0] 
r 0.185992817 _9_ RTR  --- 3 message 32 [0 ffffffff 3 800] ------- [3:255 -1:255 32 0] 
r 0.185993082 _32_ RTR  --- 3 message 32 [0 ffffffff 3 800] ------- [3:255 -1:255 32 0] 
r 0.185993152 _19_ RTR  --- 3 message 32 [0 ffffffff 3 800] ------- [3:255 -1:255 32 0] 
r 0.185993162 _10_ RTR  --- 3 message 32 [0 ffffffff 3 800] ------- [3:255 -1:255 32 0] 
r 0.185993190 _33_ RTR  --- 3 message 32 [0 ffffffff 3 800] ------- [3:255 -1:255 32 0] 
s 0.188553284 _19_ RTR  --- 4 message 32 [0 0 0 0] ------- [19:255 -1:255 32 0] 
s 0.188628284 _19_ MAC  --- 4 message 90 [0 ffffffff 13 800] ------- [19:255 -1:255 32 0] 
r 0.189348422 _23_ MAC  --- 4 message 32 [0 ffffffff 13 800] ------- [19:255 -1:255 32 0] 
r 0.189348801 _35_ MAC  --- 4 message 32 [0 ffffffff 13 800] ------- [19:255 -1:255 32 0] 
r 0.189348924 _10_ MAC  --- 4 message 32 [0 ffffffff 13 800] ------- [19:255 -1:255 32 0] 
r 0.189349165 _31_ MAC  --- 4 message 32 [0 ffffffff 13 800] ------- [19:255 -1:255 32 0] 
r 0.189349373 _22_ MAC  --- 4 message 32 [0 ffffffff 13 800] ------- [19:255 -1:255 32 0] 
r 0.189349466 _17_ MAC  --- 4 message 32 [0 ffffffff 13 800] ------- [19:255 -1:255 32 0] 
r 0.189349505 _24_ MAC  --- 4 message 32 [0 ffffffff 13 800] ------- [19:255 -1:255 32 0] 
r 0.189349537 _3_ MAC  --- 4 message 32 [0 ffffffff 13 800] ------- [19:255 -1:255 32 0] 
r 0.189373422 _23_ RTR  --- 4 message 32 [0 ffffffff 13 800] ------- [19:255 -1:255 32 0] 
r 0.189373801 _35_ RTR  --- 4 message 32 [0 ffffffff 13 800] ------- [19:255 -1:255 32 0] 
r 0.189373924 _10_ RTR  --- 4 message 32 [0 ffffffff 13 800] ------- [19:255 -1:255 32 0] 
r 0.189374165 _31_ RTR  --- 4 message 32 [0 ffffffff 13 800] ------- [19:255 -1:255 32 0] 
r 0.189374373 _22_ RTR  --- 4 message 32 [0 ffffffff 13 800] ------- [19:255 -1:255 32 0] 
r 0.189374466 _17_ RTR  --- 4 message 32 [0 ffffffff 13 800] ------- [19:255 -1:255 32 0] 
r 0.189374505 _24_ RTR  --- 4 message 32 [0 ffffffff 13 800] ------- [19:255 -1:255 32 0] 
r 0.189374537 _3_ RTR  --- 4 message 32 [0 ffffffff 13 800] ------- [19:255 -1:255 32 0] 
s 0.227865106 _36_ RTR  --- 5 message 32 [0 0 0 0] ------- [36:255 -1:255 32 0] 
s 0.228180106 _36_ MAC  --- 5 message 90 [0 ffffffff 24 800] ------- [36:255 -1:255 32 0] 
r 0.228900106 _37_ MAC  --- 5 message 32 [0 ffffffff 24 800] ------- [36:255 -1:255 32 0] 
r 0.228901265 _10_ MAC  --- 5 message 32 [0 ffffffff 24 800] ------- [36:255 -1:255 32 0] 
r 0.228901307 _23_ MAC  --- 5 message 32 [0 ffffffff 24 800] ------- [36:255 -1:255 32 0] 
r 0.228925106 _37_ RTR  --- 5 message 32 [0 ffffffff 24 800] ------- [36:255 -1:255 32 0] 
r 0.228926265 _10_ RTR  --- 5 message 32 [0 ffffffff 24 800] ------- [36:255 -1:255 32 0] 
r 0.228926307 _23_ RTR  --- 5 message 32 [0 ffffffff 24 800] ------- [36:255 -1:255 32 0] 
s 0.229683837 _15_ RTR  --- 6 message 32 [0 0 0 0] ------- [15:255 -1:255 32 0] 
s 0.230058837 _15_ MAC  --- 6 message 90 [0 ffffffff f 800] ------- [15:255 -1:255 32 0] 
r 0.230779377 _30_ MAC  --- 6 message 32 [0 ffffffff f 800] ------- [15:255 -1:255 32 0] 
r 0.230779446 _5_ MAC  --- 6 message 32 [0 ffffffff f 800] ------- [15:255 -1:255 32 0] 
r 0.230779625 _2_ MAC  --- 6 message 32 [0 ffffffff f 800] ------- [15:255 -1:255 32 0] 
r 0.230779752 _28_ MAC  --- 6 message 32 [0 ffffffff f 800] ------- [15:255 -1:255 32 0] 
r 0.230779774 _1_ MAC  --- 6 message 32 [0 ffffffff f 800] ------- [15:255 -1:255 32 0] 
r 0.230779929 _16_ MAC  --- 6 message 32 [0 ffffffff f 800] ------- [15:255 -1:255 32 0] 
r 0.230780123 _17_ MAC  --- 6 message 32 [0 ffffffff f 800] ------- [15:255 -1:255 32 0] 
r 0.230780148 _12_ MAC  --- 6 message 32 [0 ffffffff f 800] ------- [15:255 -1:255 32 0] 
r 0.230804377 _30_ RTR  --- 6 message 32 [0 ffffffff f 800] ------- [15:255 -1:255 32 0] 
r 0.230804446 _5_ RTR  --- 6 message 32 [0 ffffffff f 800] ------- [15:255 -1:255 32 0] 
r 0.230804625 _2_ RTR  --- 6 message 32 [0 ffffffff f 800] ------- [15:255 -1:255 32 0] 
r 0.230804752 _28_ RTR  --- 6 message 32 [0 ffffffff f 800] ------- [15:255 -1:255 32 0] 
r 0.230804774 _1_ RTR  --- 6 message 32 [0 ffffffff f 800] ------- [15:255 -1:255 32 0] 
r 0.230804929 _16_ RTR  --- 6 message 32 [0 ffffffff f 800] ------- [15:255 -1:255 32 0] 
r 0.230805123 _17_ RTR  --- 6 message 32 [0 ffffffff f 800] ------- [15:255 -1:255 32 0] 
r 0.230805148 _12_ RTR  --- 6 message 32 [0 ffffffff f 800] ------- [15:255 -1:255 32 0] 
s 0.328792147 _12_ RTR  --- 7 message 32 [0 0 0 0] ------- [12:255 -1:255 32 0] 
s 0.329067147 _12_ MAC  --- 7 message 90 [0 ffffffff c 800] ------- [12:255 -1:255 32 0] 
r 0.329787390 _13_ MAC  --- 7 message 32 [0 ffffffff c 800] ------- [12:255 -1:255 32 0] 
r 0.329787604 _26_ MAC  --- 7 message 32 [0 ffffffff c 800] ------- [12:255 -1:255 32 0] 
r 0.329787854 _4_ MAC  --- 7 message 32 [0 ffffffff c 800] ------- [12:255 -1:255 32 0] 
r 0.329787891 _2_ MAC  --- 7 message 32 [0 ffffffff c 800] ------- [12:255 -1:255 32 0] 
r 0.329788458 _15_ MAC  --- 7 message 32 [0 ffffffff c 800] ------- [12:255 -1:255 32 0] 
r 0.329812390 _13_ RTR  --- 7 message 32 [0 ffffffff c 800] ------- [12:255 -1:255 32 0] 
r 0.329812604 _26_ RTR  --- 7 message 32 [0 ffffffff c 800] ------- [12:255 -1:255 32 0] 
r 0.329812854 _4_ RTR  --- 7 message 32 [0 ffffffff c 800] ------- [12:255 -1:255 32 0] 
r 0.329812891 _2_ RTR  --- 7 message 32 [0 ffffffff c 800] ------- [12:255 -1:255 32 0] 
r 0.329813458 _15_ RTR  --- 7 message 32 [0 ffffffff c 800] ------- [12:255 -1:255 32 0] 
s 0.353822708 _18_ RTR  --- 8 message 32 [0 0 0 0] ------- [18:255 -1:255 32 0] 
s 0.354097708 _18_ MAC  --- 8 message 90 [0 ffffffff 12 800] ------- [18:255 -1:255 32 0] 
r 0.354818377 _7_ MAC  --- 8 message 32 [0 ffffffff 12 800] ------- [18:255 -1:255 32 0] 
r 0.354818564 _2_ MAC  --- 8 message 32 [0 ffffffff 12 800] ------- [18:255 -1:255 32 0] 
r 0.354818596 _8_ MAC  --- 8 message 32 [0 ffffffff 12 800] ------- [18:255 -1:255 32 0] 
r 0.354818628 _30_ MAC  --- 8 message 32 [0 ffffffff 12 800] ------- [18:255 -1:255 32 0] 
r 0.354818854 _21_ MAC  --- 8 message 32 [0 ffffffff 12 800] ------- [18:255 -1:255 32 0] 
r 0.354818898 _34_ MAC  --- 8 message 32 [0 ffffffff 12 800] ------- [18:255 -1:255 32 0] 
r 0.354843377 _7_ RTR  --- 8 message 32 [0 ffffffff 12 800] ------- [18:255 -1:255 32 0] 
r 0.354843564 _2_ RTR  --- 8 message 32 [0 ffffffff 12 800] ------- [18:255 -1:255 32 0] 
r 0.354843596 _8_ RTR  --- 8 message 32 [0 ffffffff 12 800] ------- [18:255 -1:255 32 0] 
r 0.354843628 _30_ RTR  --- 8 message 32 [0 ffffffff 12 800] ------- [18:255 -1:255 32 0] 
r 0.354843854 _21_ RTR  --- 8 message 32 [0 ffffffff 12 800] ------- [18:255 -1:255 32 0] 
r 0.354843898 _34_ RTR  --- 8 message 32 [0 ffffffff 12 800] ------- [18:255 -1:255 32 0] 
s 0.382010901 _38_ RTR  --- 9 message 32 [0 0 0 0] ------- [38:255 -1:255 32 0] 
s 0.382205901 _38_ MAC  --- 9 message 90 [0 ffffffff 26 800] ------- [38:255 -1:255 32 0] 
r 0.382926205 _6_ MAC  --- 9 message 32 [0 ffffffff 26 800] ------- [38:255 -1:255 32 0] 
r 0.382926640 _27_ MAC  --- 9 message 32 [0 ffffffff 26 800] ------- [38:255 -1:255 32 0] 
r 0.382927116 _14_ MAC  --- 9 message 32 [0 ffffffff 26 800] ------- [38:255 -1:255 32 0] 
r 0.382927122 _25_ MAC  --- 9 message 32 [0 ffffffff 26 800] ------- [38:255 -1:255 32 0] 
r 0.382927165 _11_ MAC  --- 9 message 32 [0 ffffffff 26 800] ------- [38:255 -1:255 32 0] 
r 0.382951205 _6_ RTR  --- 9 message 32 [0 ffffffff 26 800] ------- [38:255 -1:255 32 0] 
r 0.382951640 _27_ RTR  --- 9 message 32 [0 ffffffff 26 800] ------- [38:255 -1:255 32 0] 
r 0.382952116 _14_ RTR  --- 9 message 32 [0 ffffffff 26 800] ------- [38:255 -1:255 32 0] 
r 0.382952122 _25_ RTR  --- 9 message 32 [0 ffffffff 26 800] ------- [38:255 -1:255 32 0] 
r 0.382952165 _11_ RTR  --- 9 message 32 [0 ffffffff 26 800] ------- [38:255 -1:255 32 0] 
s 0.442339037 _29_ RTR  --- 10 message 32 [0 0 0 0] ------- [29:255 -1:255 32 0] 
s 0.443014037 _29_ MAC  --- 10 message 90 [0 ffffffff 1d 800] ------- [29:255 -1:255 32 0] 
r 0.443734604 _34_ MAC  --- 10 message 32 [0 ffffffff 1d 800] ------- [29:255 -1:255 32 0] 
r 0.443735049 _16_ MAC  --- 10 message 32 [0 ffffffff 1d 800] ------- [29:255 -1:255 32 0] 
r 0.443735239 _7_ MAC  --- 10 message 32 [0 ffffffff 1d 800] ------- [29:255 -1:255 32 0] 
r 0.443759604 _34_ RTR  --- 10 message 32 [0 ffffffff 1d 800] ------- [29:255 -1:255 32 0] 
r 0.443760049 _16_ RTR  --- 10 message 32 [0 ffffffff 1d 800] ------- [29:255 -1:255 32 0] 
r 0.443760239 _7_ RTR  --- 10 message 32 [0 ffffffff 1d 800] ------- [29:255 -1:255 32 0] 
s 0.477041254 _8_ RTR  --- 11 message 32 [0 0 0 0] ------- [8:255 -1:255 32 0] 
s 0.477416254 _8_ MAC  --- 11 message 90 [0 ffffffff 8 800] ------- [8:255 -1:255 32 0] 
r 0.478136675 _7_ MAC  --- 11 message 32 [0 ffffffff 8 800] ------- [8:255 -1:255 32 0] 
r 0.478137142 _18_ MAC  --- 11 message 32 [0 ffffffff 8 800] ------- [8:255 -1:255 32 0] 
r 0.478137344 _34_ MAC  --- 11 message 32 [0 ffffffff 8 800] ------- [8:255 -1:255 32 0] 
r 0.478161675 _7_ RTR  --- 11 message 32 [0 ffffffff 8 800] ------- [8:255 -1:255 32 0] 
r 0.478162142 _18_ RTR  --- 11 message 32 [0 ffffffff 8 800] ------- [8:255 -1:255 32 0] 
r 0.478162344 _34_ RTR  --- 11 message 32 [0 ffffffff 8 800] ------- [8:255 -1:255 32 0] 
s 0.487912486 _30_ RTR  --- 12 message 32 [0 0 0 0] ------- [30:255 -1:255 32 0] 
s 0.488567486 _30_ MAC  --- 12 message 90 [0 ffffffff 1e 800] ------- [30:255 -1:255 32 0] 
r 0.489288025 _15_ MAC  --- 12 message 32 [0 ffffffff 1e 800] ------- [30:255 -1:255 32 0] 
r 0.489288136 _2_ MAC  --- 12 message 32 [0 ffffffff 1e 800] ------- [30:255 -1:255 32 0] 
r 0.489288278 _5_ MAC  --- 12 message 32 [0 ffffffff 1e 800] ------- [30:255 -1:255 32 0] 
r 0.489288315 _16_ MAC  --- 12 message 32 [0 ffffffff 1e 800] ------- [30:255 -1:255 32 0] 
r 0.489288406 _18_ MAC  --- 12 message 32 [0 ffffffff 1e 800] ------- [30:255 -1:255 32 0] 
r 0.489288614 _34_ MAC  --- 12 message 32 [0 ffffffff 1e 800] ------- [30:255 -1:255 32 0] 
r 0.489288690 _7_ MAC  --- 12 message 32 [0 ffffffff 1e 800] ------- [30:255 -1:255 32 0] 
r 0.489313025 _15_ RTR  --- 12 message 32 [0 ffffffff 1e 800] ------- [30:255 -1:255 32 0] 
r 0.489313136 _2_ RTR  --- 12 message 32 [0 ffffffff 1e 800] ------- [30:255 -1:255 32 0] 
r 0.489313278 _5_ RTR  --- 12 message 32 [0 ffffffff 1e 800] ------- [30:255 -1:255 32 0] 
r 0.489313315 _16_ RTR  --- 12 message 32 [0 ffffffff 1e 800] ------- [30:255 -1:255 32 0] 
r 0.489313406 _18_ RTR  --- 12 message 32 [0 ffffffff 1e 800] ------- [30:255 -1:255 32 0] 
r 0.489313614 _34_ RTR  --- 12 message 32 [0 ffffffff 1e 800] ------- [30:255 -1:255 32 0] 
r 0.489313690 _7_ RTR  --- 12 message 32 [0 ffffffff 1e 800] ------- [30:255 -1:255 32 0] 
s 0.519498042 _22_ RTR  --- 13 message 32 [0 0 0 0] ------- [22:255 -1:255 32 0] 
s 0.520013042 _22_ MAC  --- 13 message 90 [0 ffffffff 16 800] ------- [22:255 -1:255 32 0] 
r 0.520733308 _3_ MAC  --- 13 message 32 [0 ffffffff 16 800] ------- [22:255 -1:255 32 0] 
r 0.520733372 _17_ MAC  --- 13 message 32 [0 ffffffff 16 800] ------- [22:255 -1:255 32 0] 
r 0.520733592 _31_ MAC  --- 13 message 32 [0 ffffffff 16 800] ------- [22:255 -1:255 32 0] 
r 0.520733592 _1_ MAC  --- 13 message 32 [0 ffffffff 16 800] ------- [22:255 -1:255 32 0] 
r 0.520733630 _35_ MAC  --- 13 message 32 [0 ffffffff 16 800] ------- [22:255 -1:255 32 0] 
r 0.520733727 _20_ MAC  --- 13 message 32 [0 ffffffff 16 800] ------- [22:255 -1:255 32 0] 
r 0.520733931 _28_ MAC  --- 13 message 32 [0 ffffffff 16 800] ------- [22:255 -1:255 32 0] 
r 0.520733991 _24_ MAC  --- 13 message 32 [0 ffffffff 16 800] ------- [22:255 -1:255 32 0] 
r 0.520734131 _19_ MAC  --- 13 message 32 [0 ffffffff 16 800] ------- [22:255 -1:255 32 0] 
r 0.520734223 _9_ MAC  --- 13 message 32 [0 ffffffff 16 800] ------- [22:255 -1:255 32 0] 
r 0.520734257 _23_ MAC  --- 13 message 32 [0 ffffffff 16 800] ------- [22:255 -1:255 32 0] 
r 0.520734270 _10_ MAC  --- 13 message 32 [0 ffffffff 16 800] ------- [22:255 -1:255 32 0] 
r 0.520758308 _3_ RTR  --- 13 message 32 [0 ffffffff 16 800] ------- [22:255 -1:255 32 0] 
r 0.520758372 _17_ RTR  --- 13 message 32 [0 ffffffff 16 800] ------- [22:255 -1:255 32 0] 
r 0.520758592 _31_ RTR  --- 13 message 32 [0 ffffffff 16 800] ------- [22:255 -1:255 32 0] 
r 0.520758592 _1_ RTR  --- 13 message 32 [0 ffffffff 16 800] ------- [22:255 -1:255 32 0] 
r 0.520758630 _35_ RTR  --- 13 message 32 [0 ffffffff 16 800] ------- [22:255 -1:255 32 0] 
r 0.520758727 _20_ RTR  --- 13 message 32 [0 ffffffff 16 800] ------- [22:255 -1:255 32 0] 
r 0.520758931 _28_ RTR  --- 13 message 32 [0 ffffffff 16 800] ------- [22:255 -1:255 32 0] 
r 0.520758991 _24_ RTR  --- 13 message 32 [0 ffffffff 16 800] ------- [22:255 -1:255 32 0] 
r 0.520759131 _19_ RTR  --- 13 message 32 [0 ffffffff 16 800] ------- [22:255 -1:255 32 0] 
r 0.520759223 _9_ RTR  --- 13 message 32 [0 ffffffff 16 800] ------- [22:255 -1:255 32 0] 
r 0.520759257 _23_ RTR  --- 13 message 32 [0 ffffffff 16 800] ------- [22:255 -1:255 32 0] 
r 0.520759270 _10_ RTR  --- 13 message 32 [0 ffffffff 16 800] ------- [22:255 -1:255 32 0] 
s 0.556838879 _38_ AGT  --- 14 cbr 512 [0 0 0 0] ------- [38:0 39:0 32 0] [0] 0 0
r 0.556838879 _38_ RTR  --- 14 cbr 512 [0 0 0 0] ------- [38:0 39:0 32 0] [0] 0 0
s 0.621208005 _10_ RTR  --- 15 message 32 [0 0 0 0] ------- [10:255 -1:255 32 0] 
s 0.621283005 _10_ MAC  --- 15 message 90 [0 ffffffff a 800] ------- [10:255 -1:255 32 0] 
r 0.622003609 _23_ MAC  --- 15 message 32 [0 ffffffff a 800] ------- [10:255 -1:255 32 0] 
r 0.622003646 _19_ MAC  --- 15 message 32 [0 ffffffff a 800] ------- [10:255 -1:255 32 0] 
r 0.622003754 _31_ MAC  --- 15 message 32 [0 ffffffff a 800] ------- [10:255 -1:255 32 0] 
r 0.622003828 _24_ MAC  --- 15 message 32 [0 ffffffff a 800] ------- [10:255 -1:255 32 0] 
r 0.622003875 _35_ MAC  --- 15 message 32 [0 ffffffff a 800] ------- [10:255 -1:255 32 0] 
r 0.622004164 _37_ MAC  --- 15 message 32 [0 ffffffff a 800] ------- [10:255 -1:255 32 0] 
r 0.622004164 _36_ MAC  --- 15 message 32 [0 ffffffff a 800] ------- [10:255 -1:255 32 0] 
r 0.622004234 _22_ MAC  --- 15 message 32 [0 ffffffff a 800] ------- [10:255 -1:255 32 0] 
r 0.622004268 _3_ MAC  --- 15 message 32 [0 ffffffff a 800] ------- [10:255 -1:255 32 0] 
r 0.622028609 _23_ RTR  --- 15 message 32 [0 ffffffff a 800] ------- [10:255 -1:255 32 0] 
r 0.622028646 _19_ RTR  --- 15 message 32 [0 ffffffff a 800] ------- [10:255 -1:255 32 0] 
r 0.622028754 _31_ RTR  --- 15 message 32 [0 ffffffff a 800] ------- [10:255 -1:255 32 0] 
r 0.622028828 _24_ RTR  --- 15 message 32 [0 ffffffff a 800] ------- [10:255 -1:255 32 0] 
r 0.622028875 _35_ RTR  --- 15 message 32 [0 ffffffff a 800] ------- [10:255 -1:255 32 0] 
r 0.622029164 _37_ RTR  --- 15 message 32 [0 ffffffff a 800] ------- [10:255 -1:255 32 0] 
r 0.622029164 _36_ RTR  --- 15 message 32 [0 ffffffff a 800] ------- [10:255 -1:255 32 0] 
r 0.622029234 _22_ RTR  --- 15 message 32 [0 ffffffff a 800] ------- [10:255 -1:255 32 0] 
r 0.622029268 _3_ RTR  --- 15 message 32 [0 ffffffff a 800] ------- [10:255 -1:255 32 0] 
s 0.634723500 _6_ RTR  --- 16 message 32 [0 0 0 0] ------- [6:255 -1:255 32 0] 
s 0.635218500 _6_ MAC  --- 16 message 90 [0 ffffffff 6 800] ------- [6:255 -1:255 32 0] 
r 0.635938804 _38_ MAC  --- 16 message 32 [0 ffffffff 6 800] ------- [6:255 -1:255 32 0] 
r 0.635938936 _27_ MAC  --- 16 message 32 [0 ffffffff 6 800] ------- [6:255 -1:255 32 0] 
r 0.635939701 _14_ MAC  --- 16 message 32 [0 ffffffff 6 800] ------- [6:255 -1:255 32 0] 
r 0.635939747 _11_ MAC  --- 16 message 32 [0 ffffffff 6 800] ------- [6:255 -1:255 32 0] 
r 0.635963804 _38_ RTR  --- 16 message 32 [0 ffffffff 6 800] ------- [6:255 -1:255 32 0] 
r 0.635963936 _27_ RTR  --- 16 message 32 [0 ffffffff 6 800] ------- [6:255 -1:255 32 0] 
r 0.635964701 _14_ RTR  --- 16 message 32 [0 ffffffff 6 800] ------- [6:255 -1:255 32 0] 
r 0.635964747 _11_ RTR  --- 16 message 32 [0 ffffffff 6 800] ------- [6:255 -1:255 32 0] 
s 0.705034406 _21_ RTR  --- 17 message 32 [0 0 0 0] ------- [21:255 -1:255 32 0] 
s 0.705129406 _21_ MAC  --- 17 message 90 [0 ffffffff 15 800] ------- [21:255 -1:255 32 0] 
r 0.705850552 _18_ MAC  --- 17 message 32 [0 ffffffff 15 800] ------- [21:255 -1:255 32 0] 
r 0.705875552 _18_ RTR  --- 17 message 32 [0 ffffffff 15 800] ------- [21:255 -1:255 32 0] 
s 0.811198126 _35_ RTR  --- 19 message 32 [0 0 0 0] ------- [35:255 -1:255 32 0] 
s 0.811873126 _35_ MAC  --- 19 message 90 [0 ffffffff 23 800] ------- [35:255 -1:255 32 0] 
r 0.812593643 _19_ MAC  --- 19 message 32 [0 ffffffff 23 800] ------- [35:255 -1:255 32 0] 
r 0.812593714 _22_ MAC  --- 19 message 32 [0 ffffffff 23 800] ------- [35:255 -1:255 32 0] 
r 0.812593719 _31_ MAC  --- 19 message 32 [0 ffffffff 23 800] ------- [35:255 -1:255 32 0] 
r 0.812593778 _23_ MAC  --- 19 message 32 [0 ffffffff 23 800] ------- [35:255 -1:255 32 0] 
r 0.812593796 _17_ MAC  --- 19 message 32 [0 ffffffff 23 800] ------- [35:255 -1:255 32 0] 
r 0.812593916 _3_ MAC  --- 19 message 32 [0 ffffffff 23 800] ------- [35:255 -1:255 32 0] 
r 0.812593996 _10_ MAC  --- 19 message 32 [0 ffffffff 23 800] ------- [35:255 -1:255 32 0] 
r 0.812594175 _24_ MAC  --- 19 message 32 [0 ffffffff 23 800] ------- [35:255 -1:255 32 0] 
r 0.812594197 _1_ MAC  --- 19 message 32 [0 ffffffff 23 800] ------- [35:255 -1:255 32 0] 
r 0.812594278 _20_ MAC  --- 19 message 32 [0 ffffffff 23 800] ------- [35:255 -1:255 32 0] 
r 0.812618643 _19_ RTR  --- 19 message 32 [0 ffffffff 23 800] ------- [35:255 -1:255 32 0] 
r 0.812618714 _22_ RTR  --- 19 message 32 [0 ffffffff 23 800] ------- [35:255 -1:255 32 0] 
r 0.812618719 _31_ RTR  --- 19 message 32 [0 ffffffff 23 800] ------- [35:255 -1:255 32 0] 
r 0.812618778 _23_ RTR  --- 19 message 32 [0 ffffffff 23 800] ------- [35:255 -1:255 32 0] 
r 0.812618796 _17_ RTR  --- 19 message 32 [0 ffffffff 23 800] ------- [35:255 -1:255 32 0] 
r 0.812618916 _3_ RTR  --- 19 message 32 [0 ffffffff 23 800] ------- [35:255 -1:255 32 0] 
r 0.812618996 _10_ RTR  --- 19 message 32 [0 ffffffff 23 800] ------- [35:255 -1:255 32 0] 
r 0.812619175 _24_ RTR  --- 19 message 32 [0 ffffffff 23 800] ------- [35:255 -1:255 32 0] 
r 0.812619197 _1_ RTR  --- 19 message 32 [0 ffffffff 23 800] ------- [35:255 -1:255 32 0] 
r 0.812619278 _20_ RTR  --- 19 message 32 [0 ffffffff 23 800] ------- [35:255 -1:255 32 0] 
s 0.812927671 _37_ RTR  --- 18 message 32 [0 0 0 0] ------- [37:255 -1:255 32 0] 
s 0.813022671 _37_ MAC  --- 18 message 90 [0 ffffffff 25 800] ------- [37:255 -1:255 32 0] 
r 0.813742671 _36_ MAC  --- 18 message 32 [0 ffffffff 25 800] ------- [37:255 -1:255 32 0] 
r 0.813743830 _10_ MAC  --- 18 message 32 [0 ffffffff 25 800] ------- [37:255 -1:255 32 0] 
r 0.813743872 _23_ MAC  --- 18 message 32 [0 ffffffff 25 800] ------- [37:255 -1:255 32 0] 
r 0.813767671 _36_ RTR  --- 18 message 32 [0 ffffffff 25 800] ------- [37:255 -1:255 32 0] 
r 0.813768830 _10_ RTR  --- 18 message 32 [0 ffffffff 25 800] ------- [37:255 -1:255 32 0] 
r 0.813768872 _23_ RTR  --- 18 message 32 [0 ffffffff 25 800] ------- [37:255 -1:255 32 0] 
s 0.819512872 _23_ RTR  --- 20 message 32 [0 0 0 0] ------- [23:255 -1:255 32 0] 
s 0.819607872 _23_ MAC  --- 20 message 90 [0 ffffffff 17 800] ------- [23:255 -1:255 32 0] 
r 0.820328010 _19_ MAC  --- 20 message 32 [0 ffffffff 17 800] ------- [23:255 -1:255 32 0] 
r 0.820328476 _10_ MAC  --- 20 message 32 [0 ffffffff 17 800] ------- [23:255 -1:255 32 0] 
r 0.820328524 _35_ MAC  --- 20 message 32 [0 ffffffff 17 800] ------- [23:255 -1:255 32 0] 
r 0.820328839 _31_ MAC  --- 20 message 32 [0 ffffffff 17 800] ------- [23:255 -1:255 32 0] 
r 0.820329074 _37_ MAC  --- 20 message 32 [0 ffffffff 17 800] ------- [23:255 -1:255 32 0] 
r 0.820329074 _36_ MAC  --- 20 message 32 [0 ffffffff 17 800] ------- [23:255 -1:255 32 0] 
r 0.820329088 _22_ MAC  --- 20 message 32 [0 ffffffff 17 800] ------- [23:255 -1:255 32 0] 
r 0.820329141 _24_ MAC  --- 20 message 32 [0 ffffffff 17 800] ------- [23:255 -1:255 32 0] 
r 0.820329191 _17_ MAC  --- 20 message 32 [0 ffffffff 17 800] ------- [23:255 -1:255 32 0] 
r 0.820353010 _19_ RTR  --- 20 message 32 [0 ffffffff 17 800] ------- [23:255 -1:255 32 0] 
r 0.820353476 _10_ RTR  --- 20 message 32 [0 ffffffff 17 800] ------- [23:255 -1:255 32 0] 
r 0.820353524 _35_ RTR  --- 20 message 32 [0 ffffffff 17 800] ------- [23:255 -1:255 32 0] 
r 0.820353839 _31_ RTR  --- 20 message 32 [0 ffffffff 17 800] ------- [23:255 -1:255 32 0] 
r 0.820354074 _37_ RTR  --- 20 message 32 [0 ffffffff 17 800] ------- [23:255 -1:255 32 0] 
r 0.820354074 _36_ RTR  --- 20 message 32 [0 ffffffff 17 800] ------- [23:255 -1:255 32 0] 
r 0.820354088 _22_ RTR  --- 20 message 32 [0 ffffffff 17 800] ------- [23:255 -1:255 32 0] 
r 0.820354141 _24_ RTR  --- 20 message 32 [0 ffffffff 17 800] ------- [23:255 -1:255 32 0] 
r 0.820354191 _17_ RTR  --- 20 message 32 [0 ffffffff 17 800] ------- [23:255 -1:255 32 0] 
s 0.854670008 _17_ RTR  --- 21 message 32 [0 0 0 0] ------- [17:255 -1:255 32 0] 
s 0.855125008 _17_ MAC  --- 21 message 90 [0 ffffffff 11 800] ------- [17:255 -1:255 32 0] 
r 0.855845338 _22_ MAC  --- 21 message 32 [0 ffffffff 11 800] ------- [17:255 -1:255 32 0] 
r 0.855845438 _1_ MAC  --- 21 message 32 [0 ffffffff 11 800] ------- [17:255 -1:255 32 0] 
r 0.855845567 _3_ MAC  --- 21 message 32 [0 ffffffff 11 800] ------- [17:255 -1:255 32 0] 
r 0.855845677 _35_ MAC  --- 21 message 32 [0 ffffffff 11 800] ------- [17:255 -1:255 32 0] 