M 0.0 nn 30 x 1000 y 1000 rp DSDV
M 0.0 sc dsdv-update.tcl cp trafic seed 1.0
M 0.0 prop Propagation/TwoRayGround ant Antenna/OmniAntenna
M 0.00000 0 (406.40, 687.65, 0.00), (406.40, 687.65), 0.00
M 0.00000 1 (361.81, 488.35, 0.00), (361.81, 488.35), 0.00
M 0.00000 2 (433.04, 1.65, 0.00), (433.04, 1.65), 0.00
M 0.00000 3 (880.35, 775.39, 0.00), (880.35, 775.39), 0.00
M 0.00000 4 (364.53, 684.35, 0.00), (364.53, 684.35), 0.00
M 0.00000 5 (883.65, 26.65, 0.00), (883.65, 26.65), 0.00
M 0.00000 6 (729.13, 295.65, 0.00), (729.13, 295.65), 0.00
M 0.00000 7 (363.84, 785.65, 0.00), (363.84, 785.65), 0.00
M 0.00000 8 (880.35, 577.92, 0.00), (880.35, 577.92), 0.00
M 0.00000 9 (883.65, 725.85, 0.00), (883.65, 725.85), 0.00
M 0.00000 10 (738.92, 488.35, 0.00), (738.92, 488.35), 0.00
M 0.00000 11 (279.30, 684.35, 0.00), (279.30, 684.35), 0.00
M 0.00000 12 (693.89, 99.65, 0.00), (693.89, 99.65), 0.00
M 0.00000 13 (883.65, 518.12, 0.00), (883.65, 518.12), 0.00
M 0.00000 14 (1.65, 808.50, 0.00), (1.65, 808.50), 0.00
M 0.00000 15 (792.74, 491.65, 0.00), (792.74, 491.65), 0.00
M 0.00000 16 (981.65, 314.98, 0.00), (981.65, 314.98), 0.00
M 0.00000 17 (589.65, 257.54, 0.00), (589.65, 257.54), 0.00
M 0.00000 18 (67.15, 981.65, 0.00), (67.15, 981.65), 0.00
M 0.00000 19 (760.46, 295.65, 0.00), (760.46, 295.65), 0.00
M 0.00000 20 (883.65, 358.81, 0.00), (883.65, 358.81), 0.00
M 0.00000 21 (785.65, 482.73, 0.00), (785.65, 482.73), 0.00
M 0.00000 22 (589.65, 30.97, 0.00), (589.65, 30.97), 0.00
M 0.00000 23 (252.87, 99.65, 0.00), (252.87, 99.65), 0.00
M 0.00000 24 (41.12, 99.65, 0.00), (41.12, 99.65), 0.00
M 0.00000 25 (393.65, 421.29, 0.00), (393.65, 421.29), 0.00
M 0.00000 26 (647.67, 295.65, 0.00), (647.67, 295.65), 0.00
M 0.00000 27 (978.35, 475.13, 0.00), (978.35, 475.13), 0.00
M 0.00000 0 (406.40, 687.65, 0.00), (406.40, 687.65), 3.21
M 0.00000 1 (361.81, 488.35, 0.00), (361.81, 488.35), 16.49
s 0.003091411 _0_ RTR  --- 0 message 32 [0 0 0 0] ------- [0:255 -1:255 32 0] 
s 0.003466411 _0_ MAC  --- 0 message 90 [0 ffffffff 0 800] ------- [0:255 -1:255 32 0] 
r 0.004186551 _4_ MAC  --- 0 message 32 [0 ffffffff 0 800] ------- [0:255 -1:255 32 0] 
r 0.004186767 _7_ MAC  --- 0 message 32 [0 ffffffff 0 800] ------- [0:255 -1:255 32 0] 
r 0.004186835 _11_ MAC  --- 0 message 32 [0 ffffffff 0 800] ------- [0:255 -1:255 32 0] 
r 0.004187091 _1_ MAC  --- 0 message 32 [0 ffffffff 0 800] ------- [0:255 -1:255 32 0] 
r 0.004187300 _25_ MAC  --- 0 message 32 [0 ffffffff 0 800] ------- [0:255 -1:255 32 0] 
r 0.004187703 _10_ MAC  --- 0 message 32 [0 ffffffff 0 800] ------- [0:255 -1:255 32 0] 
r 0.004211551 _4_ RTR  --- 0 message 32 [0 ffffffff 0 800] ------- [0:255 -1:255 32 0] 
r 0.004211767 _7_ RTR  --- 0 message 32 [0 ffffffff 0 800] ------- [0:255 -1:255 32 0] 
r 0.004211835 _11_ RTR  --- 0 message 32 [0 ffffffff 0 800] ------- [0:255 -1:255 32 0] 
r 0.004212091 _1_ RTR  --- 0 message 32 [0 ffffffff 0 800] ------- [0:255 -1:255 32 0] 
r 0.004212300 _25_ RTR  --- 0 message 32 [0 ffffffff 0 800] ------- [0:255 -1:255 32 0] 
r 0.004212703 _10_ RTR  --- 0 message 32 [0 ffffffff 0 800] ------- [0:255 -1:255 32 0] 
s 0.037458776 _2_ RTR  --- 1 message 32 [0 0 0 0] ------- [2:255 -1:255 32 0] 
s 0.037813776 _2_ MAC  --- 1 message 90 [0 ffffffff 2 800] ------- [2:255 -1:255 32 0] 
r 0.038534307 _22_ MAC  --- 1 message 32 [0 ffffffff 2 800] ------- [2:255 -1:255 32 0] 
r 0.038534460 _23_ MAC  --- 1 message 32 [0 ffffffff 2 800] ------- [2:255 -1:255 32 0] 
r 0.038534705 _12_ MAC  --- 1 message 32 [0 ffffffff 2 800] ------- [2:255 -1:255 32 0] 
r 0.038534776 _17_ MAC  --- 1 message 32 [0 ffffffff 2 800] ------- [2:255 -1:255 32 0] 
r 0.038534989 _26_ MAC  --- 1 message 32 [0 ffffffff 2 800] ------- [2:255 -1:255 32 0] 
r 0.038559307 _22_ RTR  --- 1 message 32 [0 ffffffff 2 800] ------- [2:255 -1:255 32 0] 
r 0.038559460 _23_ RTR  --- 1 message 32 [0 ffffffff 2 800] ------- [2:255 -1:255 32 0] 
r 0.038559705 _12_ RTR  --- 1 message 32 [0 ffffffff 2 800] ------- [2:255 -1:255 32 0] 
r 0.038559776 _17_ RTR  --- 1 message 32 [0 ffffffff 2 800] ------- [2:255 -1:255 32 0] 
r 0.038559989 _26_ RTR  --- 1 message 32 [0 ffffffff 2 800] ------- [2:255 -1:255 32 0] 
s 0.087462768 _13_ RTR  --- 2 message 32 [0 0 0 0] ------- [13:255 -1:255 32 0] 
s 0.087757768 _13_ MAC  --- 2 message 90 [0 ffffffff d 800] ------- [13:255 -1:255 32 0] 
r 0.088477968 _8_ MAC  --- 2 message 32 [0 ffffffff d 800] ------- [13:255 -1:255 32 0] 
r 0.088478083 _15_ MAC  --- 2 message 32 [0 ffffffff d 800] ------- [13:255 -1:255 32 0] 
r 0.088478115 _27_ MAC  --- 2 message 32 [0 ffffffff d 800] ------- [13:255 -1:255 32 0] 
r 0.088478115 _21_ MAC  --- 2 message 32 [0 ffffffff d 800] ------- [13:255 -1:255 32 0] 
r 0.088478260 _10_ MAC  --- 2 message 32 [0 ffffffff d 800] ------- [13:255 -1:255 32 0] 
r 0.088478299 _20_ MAC  --- 2 message 32 [0 ffffffff d 800] ------- [13:255 -1:255 32 0] 
r 0.088478460 _9_ MAC  --- 2 message 32 [0 ffffffff d 800] ------- [13:255 -1:255 32 0] 
r 0.088478520 _16_ MAC  --- 2 message 32 [0 ffffffff d 800] ------- [13:255 -1:255 32 0] 
r 0.088478616 _19_ MAC  --- 2 message 32 [0 ffffffff d 800] ------- [13:255 -1:255 32 0] 
r 0.088478626 _3_ MAC  --- 2 message 32 [0 ffffffff d 800] ------- [13:255 -1:255 32 0] 
r 0.088478671 _6_ MAC  --- 2 message 32 [0 ffffffff d 800] ------- [13:255 -1:255 32 0] 
r 0.088478849 _26_ MAC  --- 2 message 32 [0 ffffffff d 800] ------- [13:255 -1:255 32 0] 
r 0.088479077 _17_ MAC  --- 2 message 32 [0 ffffffff d 800] ------- [13:255 -1:255 32 0] 
r 0.088502968 _8_ RTR  --- 2 message 32 [0 ffffffff d 800] ------- [13:255 -1:255 32 0] 
r 0.088503083 _15_ RTR  --- 2 message 32 [0 ffffffff d 800] ------- [13:255 -1:255 32 0] 
r 0.088503115 _27_ RTR  --- 2 message 32 [0 ffffffff d 800] ------- [13:255 -1:255 32 0] 
r 0.088503115 _21_ RTR  --- 2 message 32 [0 ffffffff d 800] ------- [13:255 -1:255 32 0] 
r 0.088503260 _10_ RTR  --- 2 message 32 [0 ffffffff d 800] ------- [13:255 -1:255 32 0] 
r 0.088503299 _20_ RTR  --- 2 message 32 [0 ffffffff d 800] ------- [13:255 -1:255 32 0] 
r 0.088503460 _9_ RTR  --- 2 message 32 [0 ffffffff d 800] ------- [13:255 -1:255 32 0] 
r 0.088503520 _16_ RTR  --- 2 message 32 [0 ffffffff d 800] ------- [13:255 -1:255 32 0] 
r 0.088503616 _19_ RTR  --- 2 message 32 [0 ffffffff d 800] ------- [13:255 -1:255 32 0] 
r 0.088503626 _3_ RTR  --- 2 message 32 [0 ffffffff d 800] ------- [13:255 -1:255 32 0] 
r 0.088503671 _6_ RTR  --- 2 message 32 [0 ffffffff d 800] ------- [13:255 -1:255 32 0] 
r 0.088503849 _26_ RTR  --- 2 message 32 [0 ffffffff d 800] ------- [13:255 -1:255 32 0] 
r 0.088504077 _17_ RTR  --- 2 message 32 [0 ffffffff d 800] ------- [13:255 -1:255 32 0] 
s 0.177365656 _3_ RTR  --- 3 message 32 [0 0 0 0] ------- [3:255 -1:255 32 0] 
s 0.177560656 _3_ MAC  --- 3 message 90 [0 ffffffff 3 800] ------- [3:255 -1:255 32 0] 
r 0.178280821 _9_ MAC  --- 3 message 32 [0 ffffffff 3 800] ------- [3:255 -1:255 32 0] 
r 0.178281314 _8_ MAC  --- 3 message 32 [0 ffffffff 3 800] ------- [3:255 -1:255 32 0] 
r 0.178281513 _13_ MAC  --- 3 message 32 [0 ffffffff 3 800] ------- [3:255 -1:255 32 0] 
r 0.178281646 _15_ MAC  --- 3 message 32 [0 ffffffff 3 800] ------- [3:255 -1:255 32 0] 
r 0.178281681 _21_ MAC  --- 3 message 32 [0 ffffffff 3 800] ------- [3:255 -1:255 32 0] 
r 0.178281709 _27_ MAC  --- 3 message 32 [0 ffffffff 3 800] ------- [3:255 -1:255 32 0] 
r 0.178281722 _10_ MAC  --- 3 message 32 [0 ffffffff 3 800] ------- [3:255 -1:255 32 0] 
r 0.178305821 _9_ RTR  --- 3 message 32 [0 ffffffff 3 800] ------- [3:255 -1:255 32 0] 
r 0.178306314 _8_ RTR  --- 3 message 32 [0 ffffffff 3 800] ------- [3:255 -1:255 32 0] 
r 0.178306513 _13_ RTR  --- 3 message 32 [0 ffffffff 3 800] ------- [3:255 -1:255 32 0] 
r 0.178306646 _15_ RTR  --- 3 message 32 [0 ffffffff 3 800] ------- [3:255 -1:255 32 0] 
r 0.178306681 _21_ RTR  --- 3 message 32 [0 ffffffff 3 800] ------- [3:255 -1:255 32 0] 
r 0.178306709 _27_ RTR  --- 3 message 32 [0 ffffffff 3 800] ------- [3:255 -1:255 32 0] 
r 0.178306722 _10_ RTR  --- 3 message 32 [0 ffffffff 3 800] ------- [3:255 -1:255 32 0] 
s 0.191634337 _19_ RTR  --- 4 message 32 [0 0 0 0] ------- [19:255 -1:255 32 0] 
s 0.191889337 _19_ MAC  --- 4 message 90 [0 ffffffff 13 800] ------- [19:255 -1:255 32 0] 
r 0.192609441 _6_ MAC  --- 4 message 32 [0 ffffffff 13 800] ------- [19:255 -1:255 32 0] 
r 0.192609713 _26_ MAC  --- 4 message 32 [0 ffffffff 13 800] ------- [19:255 -1:255 32 0] 
r 0.192609798 _20_ MAC  --- 4 message 32 [0 ffffffff 13 800] ------- [19:255 -1:255 32 0] 
r 0.192609920 _17_ MAC  --- 4 message 32 [0 ffffffff 13 800] ------- [19:255 -1:255 32 0] 
r 0.192609966 _21_ MAC  --- 4 message 32 [0 ffffffff 13 800] ------- [19:255 -1:255 32 0] 
r 0.192609983 _10_ MAC  --- 4 message 32 [0 ffffffff 13 800] ------- [19:255 -1:255 32 0] 
r 0.192609999 _15_ MAC  --- 4 message 32 [0 ffffffff 13 800] ------- [19:255 -1:255 32 0] 
r 0.192610027 _12_ MAC  --- 4 message 32 [0 ffffffff 13 800] ------- [19:255 -1:255 32 0] 
r 0.192610077 _16_ MAC  --- 4 message 32 [0 ffffffff 13 800] ------- [19:255 -1:255 32 0] 
r 0.192610184 _13_ MAC  --- 4 message 32 [0 ffffffff 13 800] ------- [19:255 -1:255 32 0] 
r 0.192610278 _27_ MAC  --- 4 message 32 [0 ffffffff 13 800] ------- [19:255 -1:255 32 0] 
r 0.192610323 _5_ MAC  --- 4 message 32 [0 ffffffff 13 800] ------- [19:255 -1:255 32 0] 
r 0.192610359 _8_ MAC  --- 4 message 32 [0 ffffffff 13 800] ------- [19:255 -1:255 32 0] 
r 0.192610387 _22_ MAC  --- 4 message 32 [0 ffffffff 13 800] ------- [19:255 -1:255 32 0] 
r 0.192610605 _29_ MAC  --- 4 message 32 [0 ffffffff 13 800] ------- [19:255 -1:255 32 0] 
r 0.192610629 _25_ MAC  --- 4 message 32 [0 ffffffff 13 800] ------- [19:255 -1:255 32 0] 
r 0.192634441 _6_ RTR  --- 4 message 32 [0 ffffffff 13 800] ------- [19:255 -1:255 32 0] 
r 0.192634713 _26_ RTR  --- 4 message 32 [0 ffffffff 13 800] ------- [19:255 -1:255 32 0] 
r 0.192634798 _20_ RTR  --- 4 message 32 [0 ffffffff 13 800] ------- [19:255 -1:255 32 0] 
r 0.192634920 _17_ RTR  --- 4 message 32 [0 ffffffff 13 800] ------- [19:255 -1:255 32 0] 
r 0.192634966 _21_ RTR  --- 4 message 32 [0 ffffffff 13 800] ------- [19:255 -1:255 32 0] 
r 0.192634983 _10_ RTR  --- 4 message 32 [0 ffffffff 13 800] ------- [19:255 -1:255 32 0] 
r 0.192634999 _15_ RTR  --- 4 message 32 [0 ffffffff 13 800] ------- [19:255 -1:255 32 0] 
r 0.192635027 _12_ RTR  --- 4 message 32 [0 ffffffff 13 800] ------- [19:255 -1:255 32 0] 
r 0.192635077 _16_ RTR  --- 4 message 32 [0 ffffffff 13 800] ------- [19:255 -1:255 32 0] 
r 0.192635184 _13_ RTR  --- 4 message 32 [0 ffffffff 13 800] ------- [19:255 -1:255 32 0] 
r 0.192635278 _27_ RTR  --- 4 message 32 [0 ffffffff 13 800] ------- [19:255 -1:255 32 0] 
r 0.192635323 _5_ RTR  --- 4 message 32 [0 ffffffff 13 800] ------- [19:255 -1:255 32 0] 
r 0.192635359 _8_ RTR  --- 4 message 32 [0 ffffffff 13 800] ------- [19:255 -1:255 32 0] 
r 0.192635387 _22_ RTR  --- 4 message 32 [0 ffffffff 13 800] ------- [19:255 -1:255 32 0] 
r 0.192635605 _29_ RTR  --- 4 message 32 [0 ffffffff 13 800] ------- [19:255 -1:255 32 0] 
r 0.192635629 _25_ RTR  --- 4 message 32 [0 ffffffff 13 800] ------- [19:255 -1:255 32 0] 
s 0.234603229 _15_ RTR  --- 5 message 32 [0 0 0 0] ------- [15:255 -1:255 32 0] 
s 0.234898229 _15_ MAC  --- 5 message 90 [0 ffffffff f 800] ------- [15:255 -1:255 32 0] 
r 0.235618267 _21_ MAC  --- 5 message 32 [0 ffffffff f 800] ------- [15:255 -1:255 32 0] 
r 0.235618409 _10_ MAC  --- 5 message 32 [0 ffffffff f 800] ------- [15:255 -1:255 32 0] 
r 0.235618545 _13_ MAC  --- 5 message 32 [0 ffffffff f 800] ------- [15:255 -1:255 32 0] 
r 0.235618639 _8_ MAC  --- 5 message 32 [0 ffffffff f 800] ------- [15:255 -1:255 32 0] 
r 0.235618766 _20_ MAC  --- 5 message 32 [0 ffffffff f 800] ------- [15:255 -1:255 32 0] 
r 0.235618851 _27_ MAC  --- 5 message 32 [0 ffffffff f 800] ------- [15:255 -1:255 32 0] 
r 0.235618892 _19_ MAC  --- 5 message 32 [0 ffffffff f 800] ------- [15:255 -1:255 32 0] 
r 0.235618916 _6_ MAC  --- 5 message 32 [0 ffffffff f 800] ------- [15:255 -1:255 32 0] 
r 0.235619042 _26_ MAC  --- 5 message 32 [0 ffffffff f 800] ------- [15:255 -1:255 32 0] 
r 0.235619067 _9_ MAC  --- 5 message 32 [0 ffffffff f 800] ------- [15:255 -1:255 32 0] 
r 0.235619092 _16_ MAC  --- 5 message 32 [0 ffffffff f 800] ------- [15:255 -1:255 32 0] 
r 0.235619219 _3_ MAC  --- 5 message 32 [0 ffffffff f 800] ------- [15:255 -1:255 32 0] 
r 0.235619263 _17_ MAC  --- 5 message 32 [0 ffffffff f 800] ------- [15:255 -1:255 32 0] 
r 0.235643267 _21_ RTR  --- 5 message 32 [0 ffffffff f 800] ------- [15:255 -1:255 32 0] 
r 0.235643409 _10_ RTR  --- 5 message 32 [0 ffffffff f 800] ------- [15:255 -1:255 32 0] 
r 0.235643545 _13_ RTR  --- 5 message 32 [0 ffffffff f 800] ------- [15:255 -1:255 32 0] 
r 0.235643639 _8_ RTR  --- 5 message 32 [0 ffffffff f 800] ------- [15:255 -1:255 32 0] 
r 0.235643766 _20_ RTR  --- 5 message 32 [0 ffffffff f 800] ------- [15:255 -1:255 32 0] 
r 0.235643851 _27_ RTR  --- 5 message 32 [0 ffffffff f 800] ------- [15:255 -1:255 32 0] 
r 0.235643892 _19_ RTR  --- 5 message 32 [0 ffffffff f 800] ------- [15:255 -1:255 32 0] 
r 0.235643916 _6_ RTR  --- 5 message 32 [0 ffffffff f 800] ------- [15:255 -1:255 32 0] 
r 0.235644042 _26_ RTR  --- 5 message 32 [0 ffffffff f 800] ------- [15:255 -1:255 32 0] 
r 0.235644067 _9_ RTR  --- 5 message 32 [0 ffffffff f 800] ------- [15:255 -1:255 32 0] 
r 0.235644092 _16_ RTR  --- 5 message 32 [0 ffffffff f 800] ------- [15:255 -1:255 32 0] 
r 0.235644219 _3_ RTR  --- 5 message 32 [0 ffffffff f 800] ------- [15:255 -1:255 32 0] 
r 0.235644263 _17_ RTR  --- 5 message 32 [0 ffffffff f 800] ------- [15:255 -1:255 32 0] 
s 0.333839210 _12_ RTR  --- 6 message 32 [0 0 0 0] ------- [12:255 -1:255 32 0] 
s 0.333994210 _12_ MAC  --- 6 message 90 [0 ffffffff c 800] ------- [12:255 -1:255 32 0] 
r 0.334714626 _22_ MAC  --- 6 message 32 [0 ffffffff c 800] ------- [12:255 -1:255 32 0] 
r 0.334714841 _17_ MAC  --- 6 message 32 [0 ffffffff c 800] ------- [12:255 -1:255 32 0] 
r 0.334714874 _6_ MAC  --- 6 message 32 [0 ffffffff c 800] ------- [12:255 -1:255 32 0] 
r 0.334714881 _26_ MAC  --- 6 message 32 [0 ffffffff c 800] ------- [12:255 -1:255 32 0] 
r 0.334714888 _5_ MAC  --- 6 message 32 [0 ffffffff c 800] ------- [12:255 -1:255 32 0] 
r 0.334714900 _19_ MAC  --- 6 message 32 [0 ffffffff c 800] ------- [12:255 -1:255 32 0] 
r 0.334715139 _2_ MAC  --- 6 message 32 [0 ffffffff c 800] ------- [12:255 -1:255 32 0] 
r 0.334715281 _20_ MAC  --- 6 message 32 [0 ffffffff c 800] ------- [12:255 -1:255 32 0] 
r 0.334715283 _29_ MAC  --- 6 message 32 [0 ffffffff c 800] ------- [12:255 -1:255 32 0] 
r 0.334715408 _16_ MAC  --- 6 message 32 [0 ffffffff c 800] ------- [12:255 -1:255 32 0] 
r 0.334715514 _10_ MAC  --- 6 message 32 [0 ffffffff c 800] ------- [12:255 -1:255 32 0] 
r 0.334715523 _21_ MAC  --- 6 message 32 [0 ffffffff c 800] ------- [12:255 -1:255 32 0] 
r 0.334739626 _22_ RTR  --- 6 message 32 [0 ffffffff c 800] ------- [12:255 -1:255 32 0] 
r 0.334739841 _17_ RTR  --- 6 message 32 [0 ffffffff c 800] ------- [12:255 -1:255 32 0] 
r 0.334739874 _6_ RTR  --- 6 message 32 [0 ffffffff c 800] ------- [12:255 -1:255 32 0] 
r 0.334739881 _26_ RTR  --- 6 message 32 [0 ffffffff c 800] ------- [12:255 -1:255 32 0] 
r 0.334739888 _5_ RTR  --- 6 message 32 [0 ffffffff c 800] ------- [12:255 -1:255 32 0] 
r 0.334739900 _19_ RTR  --- 6 message 32 [0 ffffffff c 800] ------- [12:255 -1:255 32 0] 
r 0.334740139 _2_ RTR  --- 6 message 32 [0 ffffffff c 800] ------- [12:255 -1:255 32 0] 
r 0.334740281 _20_ RTR  --- 6 message 32 [0 ffffffff c 800] ------- [12:255 -1:255 32 0] 
r 0.334740283 _29_ RTR  --- 6 message 32 [0 ffffffff c 800] ------- [12:255 -1:255 32 0] 
r 0.334740408 _16_ RTR  --- 6 message 32 [0 ffffffff c 800] ------- [12:255 -1:255 32 0] 
r 0.334740514 _10_ RTR  --- 6 message 32 [0 ffffffff c 800] ------- [12:255 -1:255 32 0] 
r 0.334740523 _21_ RTR  --- 6 message 32 [0 ffffffff c 800] ------- [12:255 -1:255 32 0] 
s 0.351472650 _18_ RTR  --- 7 message 32 [0 0 0 0] ------- [18:255 -1:255 32 0] 
s 0.351847650 _18_ MAC  --- 7 message 90 [0 ffffffff 12 800] ------- [18:255 -1:255 32 0] 
r 0.352567882 _28_ MAC  --- 7 message 32 [0 ffffffff 12 800] ------- [18:255 -1:255 32 0] 
r 0.352568267 _14_ MAC  --- 7 message 32 [0 ffffffff 12 800] ------- [18:255 -1:255 32 0] 
r 0.352568835 _7_ MAC  --- 7 message 32 [0 ffffffff 12 800] ------- [18:255 -1:255 32 0] 
r 0.352568868 _11_ MAC  --- 7 message 32 [0 ffffffff 12 800] ------- [18:255 -1:255 32 0] 
r 0.352592882 _28_ RTR  --- 7 message 32 [0 ffffffff 12 800] ------- [18:255 -1:255 32 0] 
r 0.352593267 _14_ RTR  --- 7 message 32 [0 ffffffff 12 800] ------- [18:255 -1:255 32 0] 
r 0.352593835 _7_ RTR  --- 7 message 32 [0 ffffffff 12 800] ------- [18:255 -1:255 32 0] 
r 0.352593868 _11_ RTR  --- 7 message 32 [0 ffffffff 12 800] ------- [18:255 -1:255 32 0] 
s 0.436386259 _29_ RTR  --- 8 message 32 [0 0 0 0] ------- [29:255 -1:255 32 0] 
s 0.436701259 _29_ MAC  --- 8 message 90 [0 ffffffff 1d 800] ------- [29:255 -1:255 32 0] 
r 0.437421657 _5_ MAC  --- 8 message 32 [0 ffffffff 1d 800] ------- [29:255 -1:255 32 0] 
r 0.437422311 _16_ MAC  --- 8 message 32 [0 ffffffff 1d 800] ------- [29:255 -1:255 32 0] 
r 0.437422332 _12_ MAC  --- 8 message 32 [0 ffffffff 1d 800] ------- [29:255 -1:255 32 0] 
r 0.437422516 _20_ MAC  --- 8 message 32 [0 ffffffff 1d 800] ------- [29:255 -1:255 32 0] 
r 0.437422527 _19_ MAC  --- 8 message 32 [0 ffffffff 1d 800] ------- [29:255 -1:255 32 0] 
r 0.437446657 _5_ RTR  --- 8 message 32 [0 ffffffff 1d 800] ------- [29:255 -1:255 32 0] 
r 0.437447311 _16_ RTR  --- 8 message 32 [0 ffffffff 1d 800] ------- [29:255 -1:255 32 0] 
r 0.437447332 _12_ RTR  --- 8 message 32 [0 ffffffff 1d 800] ------- [29:255 -1:255 32 0] 
r 0.437447516 _20_ RTR  --- 8 message 32 [0 ffffffff 1d 800] ------- [29:255 -1:255 32 0] 
r 0.437447527 _19_ RTR  --- 8 message 32 [0 ffffffff 1d 800] ------- [29:255 -1:255 32 0] 
s 0.470117073 _8_ RTR  --- 9 message 32 [0 0 0 0] ------- [8:255 -1:255 32 0] 
s 0.470652073 _8_ MAC  --- 9 message 90 [0 ffffffff 8 800] ------- [8:255 -1:255 32 0] 
r 0.471372273 _13_ MAC  --- 9 message 32 [0 ffffffff 8 800] ------- [8:255 -1:255 32 0] 
r 0.471372483 _15_ MAC  --- 9 message 32 [0 ffffffff 8 800] ------- [8:255 -1:255 32 0] 
r 0.471372520 _21_ MAC  --- 9 message 32 [0 ffffffff 8 800] ------- [8:255 -1:255 32 0] 
r 0.471372546 _27_ MAC  --- 9 message 32 [0 ffffffff 8 800] ------- [8:255 -1:255 32 0] 
r 0.471372566 _9_ MAC  --- 9 message 32 [0 ffffffff 8 800] ------- [8:255 -1:255 32 0] 
r 0.471372631 _10_ MAC  --- 9 message 32 [0 ffffffff 8 800] ------- [8:255 -1:255 32 0] 
r 0.471372731 _3_ MAC  --- 9 message 32 [0 ffffffff 8 800] ------- [8:255 -1:255 32 0] 
r 0.471372803 _20_ MAC  --- 9 message 32 [0 ffffffff 8 800] ------- [8:255 -1:255 32 0] 
r 0.471373012 _16_ MAC  --- 9 message 32 [0 ffffffff 8 800] ------- [8:255 -1:255 32 0] 
r 0.471373095 _19_ MAC  --- 9 message 32 [0 ffffffff 8 800] ------- [8:255 -1:255 32 0] 
r 0.471373140 _6_ MAC  --- 9 message 32 [0 ffffffff 8 800] ------- [8:255 -1:255 32 0] 
r 0.471373292 _26_ MAC  --- 9 message 32 [0 ffffffff 8 800] ------- [8:255 -1:255 32 0] 
r 0.471397273 _13_ RTR  --- 9 message 32 [0 ffffffff 8 800] ------- [8:255 -1:255 32 0] 
r 0.471397483 _15_ RTR  --- 9 message 32 [0 ffffffff 8 800] ------- [8:255 -1:255 32 0] 
r 0.471397520 _21_ RTR  --- 9 message 32 [0 ffffffff 8 800] ------- [8:255 -1:255 32 0] 
r 0.471397546 _27_ RTR  --- 9 message 32 [0 ffffffff 8 800] ------- [8:255 -1:255 32 0] 
r 0.471397566 _9_ RTR  --- 9 message 32 [0 ffffffff 8 800] ------- [8:255 -1:255 32 0] 
r 0.471397631 _10_ RTR  --- 9 message 32 [0 ffffffff 8 800] ------- [8:255 -1:255 32 0] 
r 0.471397731 _3_ RTR  --- 9 message 32 [0 ffffffff 8 800] ------- [8:255 -1:255 32 0] 
r 0.471397803 _20_ RTR  --- 9 message 32 [0 ffffffff 8 800] ------- [8:255 -1:255 32 0] 
r 0.471398012 _16_ RTR  --- 9 message 32 [0 ffffffff 8 800] ------- [8:255 -1:255 32 0] 
r 0.471398095 _19_ RTR  --- 9 message 32 [0 ffffffff 8 800] ------- [8:255 -1:255 32 0] 
r 0.471398140 _6_ RTR  --- 9 message 32 [0 ffffffff 8 800] ------- [8:255 -1:255 32 0] 
r 0.471398292 _26_ RTR  --- 9 message 32 [0 ffffffff 8 800] ------- [8:255 -1:255 32 0] 
s 0.521504883 _22_ RTR  --- 10 message 32 [0 0 0 0] ------- [22:255 -1:255 32 0] 
s 0.521659883 _22_ MAC  --- 10 message 90 [0 ffffffff 16 800] ------- [22:255 -1:255 32 0] 
r 0.522380299 _12_ MAC  --- 10 message 32 [0 ffffffff 16 800] ------- [22:255 -1:255 32 0] 
r 0.522380414 _2_ MAC  --- 10 message 32 [0 ffffffff 16 800] ------- [22:255 -1:255 32 0] 
r 0.522380638 _17_ MAC  --- 10 message 32 [0 ffffffff 16 800] ------- [22:255 -1:255 32 0] 
r 0.522380786 _26_ MAC  --- 10 message 32 [0 ffffffff 16 800] ------- [22:255 -1:255 32 0] 
r 0.522380863 _5_ MAC  --- 10 message 32 [0 ffffffff 16 800] ------- [22:255 -1:255 32 0] 
r 0.522380880 _6_ MAC  --- 10 message 32 [0 ffffffff 16 800] ------- [22:255 -1:255 32 0] 
r 0.522380933 _19_ MAC  --- 10 message 32 [0 ffffffff 16 800] ------- [22:255 -1:255 32 0] 
r 0.522381029 _23_ MAC  --- 10 message 32 [0 ffffffff 16 800] ------- [22:255 -1:255 32 0] 
r 0.522405299 _12_ RTR  --- 10 message 32 [0 ffffffff 16 800] ------- [22:255 -1:255 32 0] 
r 0.522405414 _2_ RTR  --- 10 message 32 [0 ffffffff 16 800] ------- [22:255 -1:255 32 0] 
r 0.522405638 _17_ RTR  --- 10 message 32 [0 ffffffff 16 800] ------- [22:255 -1:255 32 0] 
r 0.522405786 _26_ RTR  --- 10 message 32 [0 ffffffff 16 800] ------- [22:255 -1:255 32 0] 
r 0.522405863 _5_ RTR  --- 10 message 32 [0 ffffffff 16 800] ------- [22:255 -1:255 32 0] 
r 0.522405880 _6_ RTR  --- 10 message 32 [0 ffffffff 16 800] ------- [22:255 -1:255 32 0] 
r 0.522405933 _19_ RTR  --- 10 message 32 [0 ffffffff 16 800] ------- [22:255 -1:255 32 0] 
r 0.522406029 _23_ RTR  --- 10 message 32 [0 ffffffff 16 800] ------- [22:255 -1:255 32 0] 
s 0.556838879 _28_ AGT  --- 11 cbr 512 [0 0 0 0] ------- [28:0 29:0 32 0] [0] 0 0
r 0.556838879 _28_ RTR  --- 11 cbr 512 [0 0 0 0] ------- [28:0 29:0 32 0] [0] 0 0
s 0.627186592 _10_ RTR  --- 12 message 32 [0 0 0 0] ------- [10:255 -1:255 32 0] 
s 0.627321592 _10_ MAC  --- 12 message 90 [0 ffffffff a 800] ------- [10:255 -1:255 32 0] 
r 0.628041749 _21_ MAC  --- 12 message 32 [0 ffffffff a 800] ------- [10:255 -1:255 32 0] 
r 0.628041772 _15_ MAC  --- 12 message 32 [0 ffffffff a 800] ------- [10:255 -1:255 32 0] 
r 0.628042085 _13_ MAC  --- 12 message 32 [0 ffffffff a 800] ------- [10:255 -1:255 32 0] 
r 0.628042150 _8_ MAC  --- 12 message 32 [0 ffffffff a 800] ------- [10:255 -1:255 32 0] 
r 0.628042235 _6_ MAC  --- 12 message 32 [0 ffffffff a 800] ------- [10:255 -1:255 32 0] 
r 0.628042238 _19_ MAC  --- 12 message 32 [0 ffffffff a 800] ------- [10:255 -1:255 32 0] 
r 0.628042240 _20_ MAC  --- 12 message 32 [0 ffffffff a 800] ------- [10:255 -1:255 32 0] 
r 0.628042303 _26_ MAC  --- 12 message 32 [0 ffffffff a 800] ------- [10:255 -1:255 32 0] 
r 0.628042391 _27_ MAC  --- 12 message 32 [0 ffffffff a 800] ------- [10:255 -1:255 32 0] 
r 0.628042508 _17_ MAC  --- 12 message 32 [0 ffffffff a 800] ------- [10:255 -1:255 32 0] 
r 0.628042519 _9_ MAC  --- 12 message 32 [0 ffffffff a 800] ------- [10:255 -1:255 32 0] 
r 0.628042586 _16_ MAC  --- 12 message 32 [0 ffffffff a 800] ------- [10:255 -1:255 32 0] 
r 0.628042659 _3_ MAC  --- 12 message 32 [0 ffffffff a 800] ------- [10:255 -1:255 32 0] 
r 0.628042765 _25_ MAC  --- 12 message 32 [0 ffffffff a 800] ------- [10:255 -1:255 32 0] 
r 0.628042849 _1_ MAC  --- 12 message 32 [0 ffffffff a 800] ------- [10:255 -1:255 32 0] 
r 0.628042884 _0_ MAC  --- 12 message 32 [0 ffffffff a 800] ------- [10:255 -1:255 32 0] 
r 0.628042896 _12_ MAC  --- 12 message 32 [0 ffffffff a 800] ------- [10:255 -1:255 32 0] 
r 0.628066749 _21_ RTR  --- 12 message 32 [0 ffffffff a 800] ------- [10:255 -1:255 32 0] 
r 0.628066772 _15_ RTR  --- 12 message 32 [0 ffffffff a 800] ------- [10:255 -1:255 32 0] 
r 0.628067085 _13_ RTR  --- 12 message 32 [0 ffffffff a 800] ------- [10:255 -1:255 32 0] 
r 0.628067150 _8_ RTR  --- 12 message 32 [0 ffffffff a 800] ------- [10:255 -1:255 32 0] 
r 0.628067235 _6_ RTR  --- 12 message 32 [0 ffffffff a 800] ------- [10:255 -1:255 32 0] 
r 0.628067238 _19_ RTR  --- 12 message 32 [0 ffffffff a 800] ------- [10:255 -1:255 32 0] 
r 0.628067240 _20_ RTR  --- 12 message 32 [0 ffffffff a 800] ------- [10:255 -1:255 32 0] 
r 0.628067303 _26_ RTR  --- 12 message 32 [0 ffffffff a 800] ------- [10:255 -1:255 32 0] 
r 0.628067391 _27_ RTR  --- 12 message 32 [0 ffffffff a 800] ------- [10:255 -1:255 32 0] 
r 0.628067508 _17_ RTR  --- 12 message 32 [0 ffffffff a 800] ------- [10:255 -1:255 32 0] 
r 0.628067519 _9_ RTR  --- 12 message 32 [0 ffffffff a 800] ------- [10:255 -1:255 32 0] 
r 0.628067586 _16_ RTR  --- 12 message 32 [0 ffffffff a 800] ------- [10:255 -1:255 32 0] 
r 0.628067659 _3_ RTR  --- 12 message 32 [0 ffffffff a 800] ------- [10:255 -1:255 32 0] 
r 0.628067765 _25_ RTR  --- 12 message 32 [0 ffffffff a 800] ------- [10:255 -1:255 32 0] 
r 0.628067849 _1_ RTR  --- 12 message 32 [0 ffffffff a 800] ------- [10:255 -1:255 32 0] 
r 0.628067884 _0_ RTR  --- 12 message 32 [0 ffffffff a 800] ------- [10:255 -1:255 32 0] 
r 0.628067896 _12_ RTR  --- 12 message 32 [0 ffffffff a 800] ------- [10:255 -1:255 32 0] 
s 0.634670006 _6_ RTR  --- 13 message 32 [0 0 0 0] ------- [6:255 -1:255 32 0] 
s 0.634865006 _6_ MAC  --- 13 message 90 [0 ffffffff 6 800] ------- [6:255 -1:255 32 0] 
r 0.635585111 _19_ MAC  --- 13 message 32 [0 ffffffff 6 800] ------- [6:255 -1:255 32 0] 
r 0.635585278 _26_ MAC  --- 13 message 32 [0 ffffffff 6 800] ------- [6:255 -1:255 32 0] 
r 0.635585488 _17_ MAC  --- 13 message 32 [0 ffffffff 6 800] ------- [6:255 -1:255 32 0] 
r 0.635585563 _20_ MAC  --- 13 message 32 [0 ffffffff 6 800] ------- [6:255 -1:255 32 0] 
r 0.635585649 _10_ MAC  --- 13 message 32 [0 ffffffff 6 800] ------- [6:255 -1:255 32 0] 
r 0.635585658 _21_ MAC  --- 13 message 32 [0 ffffffff 6 800] ------- [6:255 -1:255 32 0] 
r 0.635585670 _12_ MAC  --- 13 message 32 [0 ffffffff 6 800] ------- [6:255 -1:255 32 0] 
r 0.635585693 _15_ MAC  --- 13 message 32 [0 ffffffff 6 800] ------- [6:255 -1:255 32 0] 
r 0.635585851 _16_ MAC  --- 13 message 32 [0 ffffffff 6 800] ------- [6:255 -1:255 32 0] 
r 0.635585909 _13_ MAC  --- 13 message 32 [0 ffffffff 6 800] ------- [6:255 -1:255 32 0] 
r 0.635586004 _22_ MAC  --- 13 message 32 [0 ffffffff 6 800] ------- [6:255 -1:255 32 0] 
r 0.635586030 _27_ MAC  --- 13 message 32 [0 ffffffff 6 800] ------- [6:255 -1:255 32 0] 
r 0.635586040 _5_ MAC  --- 13 message 32 [0 ffffffff 6 800] ------- [6:255 -1:255 32 0] 
r 0.635586074 _8_ MAC  --- 13 message 32 [0 ffffffff 6 800] ------- [6:255 -1:255 32 0] 
r 0.635586200 _25_ MAC  --- 13 message 32 [0 ffffffff 6 800] ------- [6:255 -1:255 32 0] 
r 0.635610111 _19_ RTR  --- 13 message 32 [0 ffffffff 6 800] ------- [6:255 -1:255 32 0] 
r 0.635610278 _26_ RTR  --- 13 message 32 [0 ffffffff 6 800] ------- [6:255 -1:255 32 0] 
r 0.635610488 _17_ RTR  --- 13 message 32 [0 ffffffff 6 800] ------- [6:255 -1:255 32 0] 
r 0.635610563 _20_ RTR  --- 13 message 32 [0 ffffffff 6 800] ------- [6:255 -1:255 32 0] 
r 0.635610649 _10_ RTR  --- 13 message 32 [0 ffffffff 6 800] ------- [6:255 -1:255 32 0] 
r 0.635610658 _21_ RTR  --- 13 message 32 [0 ffffffff 6 800] ------- [6:255 -1:255 32 0] 
r 0.635610670 _12_ RTR  --- 13 message 32 [0 ffffffff 6 800] ------- [6:255 -1:255 32 0] 
r 0.635610693 _15_ RTR  --- 13 message 32 [0 ffffffff 6 800] ------- [6:255 -1:255 32 0] 
r 0.635610851 _16_ RTR  --- 13 message 32 [0 ffffffff 6 800] ------- [6:255 -1:255 32 0] 
r 0.635610909 _13_ RTR  --- 13 message 32 [0 ffffffff 6 800] ------- [6:255 -1:255 32 0] 
r 0.635611004 _22_ RTR  --- 13 message 32 [0 ffffffff 6 800] ------- [6:255 -1:255 32 0] 
r 0.635611030 _27_ RTR  --- 13 message 32 [0 ffffffff 6 800] ------- [6:255 -1:255 32 0] 
r 0.635611040 _5_ RTR  --- 13 message 32 [0 ffffffff 6 800] ------- [6:255 -1:255 32 0] 
r 0.635611074 _8_ RTR  --- 13 message 32 [0 ffffffff 6 800] ------- [6:255 -1:255 32 0] 
r 0.635611200 _25_ RTR  --- 13 message 32 [0 ffffffff 6 800] ------- [6:255 -1:255 32 0] 
s 0.705637875 _21_ RTR  --- 14 message 32 [0 0 0 0] ------- [21:255 -1:255 32 0] 
s 0.706012875 _21_ MAC  --- 14 message 90 [0 ffffffff 15 800] ------- [21:255 -1:255 32 0] 
r 0.706732913 _15_ MAC  --- 14 message 32 [0 ffffffff 15 800] ------- [21:255 -1:255 32 0] 
r 0.706733031 _10_ MAC  --- 14 message 32 [0 ffffffff 15 800] ------- [21:255 -1:255 32 0] 
r 0.706733222 _13_ MAC  --- 14 message 32 [0 ffffffff 15 800] ------- [21:255 -1:255 32 0] 
r 0.706733322 _8_ MAC  --- 14 message 32 [0 ffffffff 15 800] ------- [21:255 -1:255 32 0] 
r 0.706733401 _20_ MAC  --- 14 message 32 [0 ffffffff 15 800] ------- [21:255 -1:255 32 0] 
r 0.706733504 _19_ MAC  --- 14 message 32 [0 ffffffff 15 800] ------- [21:255 -1:255 32 0] 
r 0.706733517 _27_ MAC  --- 14 message 32 [0 ffffffff 15 800] ------- [21:255 -1:255 32 0] 
r 0.706733526 _6_ MAC  --- 14 message 32 [0 ffffffff 15 800] ------- [21:255 -1:255 32 0] 
r 0.706733649 _26_ MAC  --- 14 message 32 [0 ffffffff 15 800] ------- [21:255 -1:255 32 0] 
r 0.706733734 _16_ MAC  --- 14 message 32 [0 ffffffff 15 800] ------- [21:255 -1:255 32 0] 
r 0.706733748 _9_ MAC  --- 14 message 32 [0 ffffffff 15 800] ------- [21:255 -1:255 32 0] 
r 0.706733870 _17_ MAC  --- 14 message 32 [0 ffffffff 15 800] ------- [21:255 -1:255 32 0] 
r 0.706733900 _3_ MAC  --- 14 message 32 [0 ffffffff 15 800] ------- [21:255 -1:255 32 0] 
r 0.706734188 _12_ MAC  --- 14 message 32 [0 ffffffff 15 800] ------- [21:255 -1:255 32 0] 
r 0.706734197 _25_ MAC  --- 14 message 32 [0 ffffffff 15 800] ------- [21:255 -1:255 32 0] 
r 0.706757913 _15_ RTR  --- 14 message 32 [0 ffffffff 15 800] ------- [21:255 -1:255 32 0] 
r 0.706758031 _10_ RTR  --- 14 message 32 [0 ffffffff 15 800] ------- [21:255 -1:255 32 0] 