n -t * -s 0  -x 1038.48 -y 215.56999999999999 -Z 0 -z 100  -v circle -c black
n -t * -s 1  -x 583.87 -y 272.12 -Z 0 -z 100  -v circle -c black
n -t * -s 2  -x 734.10000000000002 -y 197.80000000000001 -Z 0 -z 100  -v circle -c black
n -t * -s 3  -x 242.08000000000001 -y 493.94 -Z 0 -z 100  -v circle -c black
n -t * -s 4  -x 481.41000000000003 -y 311.58999999999997 -Z 0 -z 100  -v circle -c black
n -t * -s 5  -x 752.98000000000002 -y 1358.75 -Z 0 -z 100  -v circle -c black
n -t * -s 6  -x 604.35000000000002 -y 951.77999999999997 -Z 0 -z 100  -v circle -c black
n -t * -s 7  -x 95.569999999999993 -y 679.70000000000005 -Z 0 -z 100  -v circle -c black
n -t * -s 8  -x 42.57 -y 856.37 -Z 0 -z 100  -v circle -c black
n -t * -s 9  -x 202.21000000000001 -y 87.859999999999999 -Z 0 -z 100  -v circle -c black
n -t * -s 10  -x 1163.79 -y 1015.61 -Z 0 -z 100  -v circle -c black
n -t * -s 11  -x 820.52999999999997 -y 1350.8199999999999 -Z 0 -z 100  -v circle -c black
n -t * -s 12  -x 388.13999999999999 -y 1163.74 -Z 0 -z 100  -v circle -c black
n -t * -s 13  -x 1153.4000000000001 -y 484.26999999999998 -Z 0 -z 100  -v circle -c black
n -t * -s 14  -x 443.57999999999998 -y 108.45999999999999 -Z 0 -z 100  -v circle -c black
n -t * -s 15  -x 1035.22 -y 846.17999999999995 -Z 0 -z 100  -v circle -c black
n -t * -s 16  -x 824.83000000000004 -y 1025.52 -Z 0 -z 100  -v circle -c black
n -t * -s 17  -x 1281.3800000000001 -y 560.99000000000001 -Z 0 -z 100  -v circle -c black
n -t * -s 18  -x 1415.9200000000001 -y 1112.45 -Z 0 -z 100  -v circle -c black
n -t * -s 19  -x 920.98000000000002 -y 1239.6099999999999 -Z 0 -z 100  -v circle -c black
n -t * -s 20  -x 822.08000000000004 -y 1152.79 -Z 0 -z 100  -v circle -c black
n -t * -s 21  -x 875.67999999999995 -y 140.58000000000001 -Z 0 -z 100  -v circle -c black
n -t * -s 22  -x 571.58000000000004 -y 126.05 -Z 0 -z 100  -v circle -c black
n -t * -s 23  -x 1387 -y 1112.99 -Z 0 -z 100  -v circle -c black
n -t * -s 24  -x 761.34000000000003 -y 315.42000000000002 -Z 0 -z 100  -v circle -c black
n -t * -s 25  -x 175.28 -y 295.17000000000002 -Z 0 -z 100  -v circle -c black
n -t * -s 26  -x 0 -y 0 -Z 0 -z 100  -v circle -c black
n -t * -s 27  -x 0 -y 0 -Z 0 -z 100  -v circle -c black
n -t * -s 28  -x 0 -y 1000 -Z 0 -z 100  -v circle -c black
n -t * -s 29  -x 1000 -y 0 -Z 0 -z 100  -v circle -c black
V -t * -v 1.0a5 -a 0
W -t * -x 1700 -y 1700
A -t * -n 1 -p 0 -o 0x7fffffff -c 30 -a 1
A -t * -h 1 -m 1073741823 -s 0
n -t 0.000000 -s 0 -x 1038.480000 -y 215.570000 -U 0.000000 -V 0.000000 -T 0.000000
n -t 0.000000 -s 1 -x 583.870000 -y 272.120000 -U 0.000000 -V 0.000000 -T 0.000000
n -t 0.000000 -s 2 -x 734.100000 -y 197.800000 -U 0.000000 -V 0.000000 -T 0.000000
n -t 0.000000 -s 3 -x 242.080000 -y 493.940000 -U 0.000000 -V 0.000000 -T 0.000000
n -t 0.000000 -s 4 -x 481.410000 -y 311.590000 -U 0.000000 -V 0.000000 -T 0.000000
n -t 0.000000 -s 5 -x 752.980000 -y 1358.750000 -U 0.000000 -V 0.000000 -T 0.000000
n -t 0.000000 -s 6 -x 604.350000 -y 951.780000 -U 0.000000 -V 0.000000 -T 0.000000
n -t 0.000000 -s 7 -x 95.570000 -y 679.700000 -U 0.000000 -V 0.000000 -T 0.000000
n -t 0.000000 -s 8 -x 42.570000 -y 856.370000 -U 0.000000 -V 0.000000 -T 0.000000
n -t 0.000000 -s 9 -x 202.210000 -y 87.860000 -U 0.000000 -V 0.000000 -T 0.000000
n -t 0.000000 -s 10 -x 1163.790000 -y 1015.610000 -U 0.000000 -V 0.000000 -T 0.000000
n -t 0.000000 -s 11 -x 820.530000 -y 1350.820000 -U 0.000000 -V 0.000000 -T 0.000000
n -t 0.000000 -s 12 -x 388.140000 -y 1163.740000 -U 0.000000 -V 0.000000 -T 0.000000
n -t 0.000000 -s 13 -x 1153.400000 -y 484.270000 -U 0.000000 -V 0.000000 -T 0.000000
n -t 0.000000 -s 14 -x 443.580000 -y 108.460000 -U 0.000000 -V 0.000000 -T 0.000000
n -t 0.000000 -s 15 -x 1035.220000 -y 846.180000 -U 0.000000 -V 0.000000 -T 0.000000
n -t 0.000000 -s 16 -x 824.830000 -y 1025.520000 -U 0.000000 -V 0.000000 -T 0.000000
n -t 0.000000 -s 17 -x 1281.380000 -y 560.990000 -U 0.000000 -V 0.000000 -T 0.000000
n -t 0.000000 -s 18 -x 1415.920000 -y 1112.450000 -U 0.000000 -V 0.000000 -T 0.000000
n -t 0.000000 -s 19 -x 920.980000 -y 1239.610000 -U 0.000000 -V 0.000000 -T 0.000000
n -t 0.000000 -s 20 -x 822.080000 -y 1152.790000 -U 0.000000 -V 0.000000 -T 0.000000
n -t 0.000000 -s 21 -x 875.680000 -y 140.580000 -U 0.000000 -V 0.000000 -T 0.000000
n -t 0.000000 -s 22 -x 571.580000 -y 126.050000 -U 0.000000 -V 0.000000 -T 0.000000
n -t 0.000000 -s 23 -x 1387.000000 -y 1112.990000 -U 0.000000 -V 0.000000 -T 0.000000
n -t 0.000000 -s 24 -x 761.340000 -y 315.420000 -U 0.000000 -V 0.000000 -T 0.000000
n -t 0.000000 -s 25 -x 175.280000 -y 295.170000 -U 0.000000 -V 0.000000 -T 0.000000
n -t 0.000000 -s 0 -x 1038.480000 -y 215.570000 -U 0.000000 -V 0.000000 -T 0.000000
n -t 0.000000 -s 1 -x 583.870000 -y 272.120000 -U 0.000000 -V 0.000000 -T 0.000000
+ -t 0.003091411 -s 0 -d -1 -p message -e 32 -c 2 -a 0 -i 0 -k RTR 
- -t 0.003091411 -s 0 -d -1 -p message -e 32 -c 2 -a 0 -i 0 -k RTR
h -t 0.003091411 -s 0 -d -1 -p message -e 32 -c 2 -a 0 -i 0 -k RTR
+ -t 0.003466411 -s 0 -d -1 -p message -e 90 -c 2 -a 0 -i 0 -k MAC 
- -t 0.003466411 -s 0 -d -1 -p message -e 90 -c 2 -a 0 -i 0 -k MAC
h -t 0.003466411 -s 0 -d -1 -p message -e 90 -c 2 -a 0 -i 0 -k MAC
r -t 0.004187008 -s 21 -d -1 -p message -e 32 -c 2 -a 0 -i 0 -k MAC
r -t 0.004187141 -s 29 -d -1 -p message -e 32 -c 2 -a 0 -i 0 -k MAC
r -t 0.004187385 -s 13 -d -1 -p message -e 32 -c 2 -a 0 -i 0 -k MAC
r -t 0.004187393 -s 24 -d -1 -p message -e 32 -c 2 -a 0 -i 0 -k MAC
r -t 0.004187427 -s 2 -d -1 -p message -e 32 -c 2 -a 0 -i 0 -k MAC
r -t 0.004212008 -s 21 -d -1 -p message -e 32 -c 2 -a 0 -i 0 -k RTR
r -t 0.004212141 -s 29 -d -1 -p message -e 32 -c 2 -a 0 -i 0 -k RTR
r -t 0.004212385 -s 13 -d -1 -p message -e 32 -c 2 -a 0 -i 0 -k RTR
r -t 0.004212393 -s 24 -d -1 -p message -e 32 -c 2 -a 0 -i 0 -k RTR
r -t 0.004212427 -s 2 -d -1 -p message -e 32 -c 2 -a 0 -i 0 -k RTR
+ -t 0.037458776 -s 2 -d -1 -p message -e 32 -c 2 -a 0 -i 1 -k RTR 
- -t 0.037458776 -s 2 -d -1 -p message -e 32 -c 2 -a 0 -i 1 -k RTR
h -t 0.037458776 -s 2 -d -1 -p message -e 32 -c 2 -a 0 -i 1 -k RTR
+ -t 0.037813776 -s 2 -d -1 -p message -e 90 -c 2 -a 0 -i 1 -k MAC 
- -t 0.037813776 -s 2 -d -1 -p message -e 90 -c 2 -a 0 -i 1 -k MAC
h -t 0.037813776 -s 2 -d -1 -p message -e 90 -c 2 -a 0 -i 1 -k MAC
r -t 0.038534178 -s 24 -d -1 -p message -e 32 -c 2 -a 0 -i 1 -k MAC
r -t 0.038534285 -s 21 -d -1 -p message -e 32 -c 2 -a 0 -i 1 -k MAC
r -t 0.038534335 -s 1 -d -1 -p message -e 32 -c 2 -a 0 -i 1 -k MAC
r -t 0.038534368 -s 22 -d -1 -p message -e 32 -c 2 -a 0 -i 1 -k MAC
r -t 0.038534700 -s 4 -d -1 -p message -e 32 -c 2 -a 0 -i 1 -k MAC
r -t 0.038534789 -s 14 -d -1 -p message -e 32 -c 2 -a 0 -i 1 -k MAC
r -t 0.038534792 -s 0 -d -1 -p message -e 32 -c 2 -a 0 -i 1 -k MAC
r -t 0.038534881 -s 29 -d -1 -p message -e 32 -c 2 -a 0 -i 1 -k MAC
r -t 0.038559178 -s 24 -d -1 -p message -e 32 -c 2 -a 0 -i 1 -k RTR
r -t 0.038559285 -s 21 -d -1 -p message -e 32 -c 2 -a 0 -i 1 -k RTR
r -t 0.038559335 -s 1 -d -1 -p message -e 32 -c 2 -a 0 -i 1 -k RTR
r -t 0.038559368 -s 22 -d -1 -p message -e 32 -c 2 -a 0 -i 1 -k RTR
r -t 0.038559700 -s 4 -d -1 -p message -e 32 -c 2 -a 0 -i 1 -k RTR
r -t 0.038559789 -s 14 -d -1 -p message -e 32 -c 2 -a 0 -i 1 -k RTR
r -t 0.038559792 -s 0 -d -1 -p message -e 32 -c 2 -a 0 -i 1 -k RTR
r -t 0.038559881 -s 29 -d -1 -p message -e 32 -c 2 -a 0 -i 1 -k RTR
+ -t 0.087462768 -s 13 -d -1 -p message -e 32 -c 2 -a 0 -i 2 -k RTR 
- -t 0.087462768 -s 13 -d -1 -p message -e 32 -c 2 -a 0 -i 2 -k RTR
h -t 0.087462768 -s 13 -d -1 -p message -e 32 -c 2 -a 0 -i 2 -k RTR
+ -t 0.087757768 -s 13 -d -1 -p message -e 90 -c 2 -a 0 -i 2 -k MAC 
- -t 0.087757768 -s 13 -d -1 -p message -e 90 -c 2 -a 0 -i 2 -k MAC
h -t 0.087757768 -s 13 -d -1 -p message -e 90 -c 2 -a 0 -i 2 -k MAC
r -t 0.088478265 -s 17 -d -1 -p message -e 32 -c 2 -a 0 -i 2 -k MAC
r -t 0.088478742 -s 0 -d -1 -p message -e 32 -c 2 -a 0 -i 2 -k MAC
r -t 0.088479037 -s 15 -d -1 -p message -e 32 -c 2 -a 0 -i 2 -k MAC
r -t 0.088503265 -s 17 -d -1 -p message -e 32 -c 2 -a 0 -i 2 -k RTR
r -t 0.088503742 -s 0 -d -1 -p message -e 32 -c 2 -a 0 -i 2 -k RTR
r -t 0.088504037 -s 15 -d -1 -p message -e 32 -c 2 -a 0 -i 2 -k RTR
+ -t 0.177365656 -s 3 -d -1 -p message -e 32 -c 2 -a 0 -i 3 -k RTR 
- -t 0.177365656 -s 3 -d -1 -p message -e 32 -c 2 -a 0 -i 3 -k RTR
h -t 0.177365656 -s 3 -d -1 -p message -e 32 -c 2 -a 0 -i 3 -k RTR
+ -t 0.177560656 -s 3 -d -1 -p message -e 90 -c 2 -a 0 -i 3 -k MAC 
- -t 0.177560656 -s 3 -d -1 -p message -e 90 -c 2 -a 0 -i 3 -k MAC
h -t 0.177560656 -s 3 -d -1 -p message -e 90 -c 2 -a 0 -i 3 -k MAC
r -t 0.178281355 -s 25 -d -1 -p message -e 32 -c 2 -a 0 -i 3 -k MAC
r -t 0.178281444 -s 7 -d -1 -p message -e 32 -c 2 -a 0 -i 3 -k MAC
r -t 0.178281659 -s 4 -d -1 -p message -e 32 -c 2 -a 0 -i 3 -k MAC
r -t 0.178306355 -s 25 -d -1 -p message -e 32 -c 2 -a 0 -i 3 -k RTR
r -t 0.178306444 -s 7 -d -1 -p message -e 32 -c 2 -a 0 -i 3 -k RTR
r -t 0.178306659 -s 4 -d -1 -p message -e 32 -c 2 -a 0 -i 3 -k RTR
+ -t 0.191634337 -s 19 -d -1 -p message -e 32 -c 2 -a 0 -i 4 -k RTR 
- -t 0.191634337 -s 19 -d -1 -p message -e 32 -c 2 -a 0 -i 4 -k RTR
h -t 0.191634337 -s 19 -d -1 -p message -e 32 -c 2 -a 0 -i 4 -k RTR
+ -t 0.191889337 -s 19 -d -1 -p message -e 90 -c 2 -a 0 -i 4 -k MAC 
- -t 0.191889337 -s 19 -d -1 -p message -e 90 -c 2 -a 0 -i 4 -k MAC
h -t 0.191889337 -s 19 -d -1 -p message -e 90 -c 2 -a 0 -i 4 -k MAC
r -t 0.192609775 -s 20 -d -1 -p message -e 32 -c 2 -a 0 -i 4 -k MAC
r -t 0.192609836 -s 11 -d -1 -p message -e 32 -c 2 -a 0 -i 4 -k MAC
r -t 0.192610023 -s 5 -d -1 -p message -e 32 -c 2 -a 0 -i 4 -k MAC
r -t 0.192610119 -s 16 -d -1 -p message -e 32 -c 2 -a 0 -i 4 -k MAC
r -t 0.192610438 -s 10 -d -1 -p message -e 32 -c 2 -a 0 -i 4 -k MAC
r -t 0.192634775 -s 20 -d -1 -p message -e 32 -c 2 -a 0 -i 4 -k RTR
r -t 0.192634836 -s 11 -d -1 -p message -e 32 -c 2 -a 0 -i 4 -k RTR
r -t 0.192635023 -s 5 -d -1 -p message -e 32 -c 2 -a 0 -i 4 -k RTR
r -t 0.192635119 -s 16 -d -1 -p message -e 32 -c 2 -a 0 -i 4 -k RTR
r -t 0.192635438 -s 10 -d -1 -p message -e 32 -c 2 -a 0 -i 4 -k RTR
+ -t 0.234603229 -s 15 -d -1 -p message -e 32 -c 2 -a 0 -i 5 -k RTR 
- -t 0.234603229 -s 15 -d -1 -p message -e 32 -c 2 -a 0 -i 5 -k RTR
h -t 0.234603229 -s 15 -d -1 -p message -e 32 -c 2 -a 0 -i 5 -k RTR
+ -t 0.234898229 -s 15 -d -1 -p message -e 90 -c 2 -a 0 -i 5 -k MAC 
- -t 0.234898229 -s 15 -d -1 -p message -e 90 -c 2 -a 0 -i 5 -k MAC
h -t 0.234898229 -s 15 -d -1 -p message -e 90 -c 2 -a 0 -i 5 -k MAC
r -t 0.235618938 -s 10 -d -1 -p message -e 32 -c 2 -a 0 -i 5 -k MAC
r -t 0.235619151 -s 16 -d -1 -p message -e 32 -c 2 -a 0 -i 5 -k MAC
r -t 0.235619474 -s 20 -d -1 -p message -e 32 -c 2 -a 0 -i 5 -k MAC
r -t 0.235619485 -s 17 -d -1 -p message -e 32 -c 2 -a 0 -i 5 -k MAC
r -t 0.235619498 -s 13 -d -1 -p message -e 32 -c 2 -a 0 -i 5 -k MAC
r -t 0.235643938 -s 10 -d -1 -p message -e 32 -c 2 -a 0 -i 5 -k RTR
r -t 0.235644151 -s 16 -d -1 -p message -e 32 -c 2 -a 0 -i 5 -k RTR
r -t 0.235644474 -s 20 -d -1 -p message -e 32 -c 2 -a 0 -i 5 -k RTR
r -t 0.235644485 -s 17 -d -1 -p message -e 32 -c 2 -a 0 -i 5 -k RTR
r -t 0.235644498 -s 13 -d -1 -p message -e 32 -c 2 -a 0 -i 5 -k RTR
+ -t 0.333839210 -s 12 -d -1 -p message -e 32 -c 2 -a 0 -i 6 -k RTR 
- -t 0.333839210 -s 12 -d -1 -p message -e 32 -c 2 -a 0 -i 6 -k RTR
h -t 0.333839210 -s 12 -d -1 -p message -e 32 -c 2 -a 0 -i 6 -k RTR
+ -t 0.333994210 -s 12 -d -1 -p message -e 90 -c 2 -a 0 -i 6 -k MAC 
- -t 0.333994210 -s 12 -d -1 -p message -e 90 -c 2 -a 0 -i 6 -k MAC
h -t 0.333994210 -s 12 -d -1 -p message -e 90 -c 2 -a 0 -i 6 -k MAC
r -t 0.334715219 -s 6 -d -1 -p message -e 32 -c 2 -a 0 -i 6 -k MAC
r -t 0.334740219 -s 6 -d -1 -p message -e 32 -c 2 -a 0 -i 6 -k RTR
+ -t 0.351472650 -s 18 -d -1 -p message -e 32 -c 2 -a 0 -i 7 -k RTR 
- -t 0.351472650 -s 18 -d -1 -p message -e 32 -c 2 -a 0 -i 7 -k RTR
h -t 0.351472650 -s 18 -d -1 -p message -e 32 -c 2 -a 0 -i 7 -k RTR
+ -t 0.351847650 -s 18 -d -1 -p message -e 90 -c 2 -a 0 -i 7 -k MAC 
- -t 0.351847650 -s 18 -d -1 -p message -e 90 -c 2 -a 0 -i 7 -k MAC
h -t 0.351847650 -s 18 -d -1 -p message -e 90 -c 2 -a 0 -i 7 -k MAC
r -t 0.352567747 -s 23 -d -1 -p message -e 32 -c 2 -a 0 -i 7 -k MAC
r -t 0.352568550 -s 10 -d -1 -p message -e 32 -c 2 -a 0 -i 7 -k MAC
r -t 0.352592747 -s 23 -d -1 -p message -e 32 -c 2 -a 0 -i 7 -k RTR
r -t 0.352593550 -s 10 -d -1 -p message -e 32 -c 2 -a 0 -i 7 -k RTR
+ -t 0.436386259 -s 29 -d -1 -p message -e 32 -c 2 -a 0 -i 8 -k RTR 
- -t 0.436386259 -s 29 -d -1 -p message -e 32 -c 2 -a 0 -i 8 -k RTR
h -t 0.436386259 -s 29 -d -1 -p message -e 32 -c 2 -a 0 -i 8 -k RTR
+ -t 0.436701259 -s 29 -d -1 -p message -e 90 -c 2 -a 0 -i 8 -k MAC 
- -t 0.436701259 -s 29 -d -1 -p message -e 90 -c 2 -a 0 -i 8 -k MAC
h -t 0.436701259 -s 29 -d -1 -p message -e 90 -c 2 -a 0 -i 8 -k MAC
r -t 0.437421885 -s 21 -d -1 -p message -e 32 -c 2 -a 0 -i 8 -k MAC
r -t 0.437421989 -s 0 -d -1 -p message -e 32 -c 2 -a 0 -i 8 -k MAC
r -t 0.437422364 -s 2 -d -1 -p message -e 32 -c 2 -a 0 -i 8 -k MAC
r -t 0.437422578 -s 24 -d -1 -p message -e 32 -c 2 -a 0 -i 8 -k MAC
r -t 0.437446885 -s 21 -d -1 -p message -e 32 -c 2 -a 0 -i 8 -k RTR
r -t 0.437446989 -s 0 -d -1 -p message -e 32 -c 2 -a 0 -i 8 -k RTR
r -t 0.437447364 -s 2 -d -1 -p message -e 32 -c 2 -a 0 -i 8 -k RTR
r -t 0.437447578 -s 24 -d -1 -p message -e 32 -c 2 -a 0 -i 8 -k RTR
+ -t 0.470117073 -s 8 -d -1 -p message -e 32 -c 2 -a 0 -i 9 -k RTR 
- -t 0.470117073 -s 8 -d -1 -p message -e 32 -c 2 -a 0 -i 9 -k RTR
h -t 0.470117073 -s 8 -d -1 -p message -e 32 -c 2 -a 0 -i 9 -k RTR
+ -t 0.470652073 -s 8 -d -1 -p message -e 90 -c 2 -a 0 -i 9 -k MAC 
- -t 0.470652073 -s 8 -d -1 -p message -e 90 -c 2 -a 0 -i 9 -k MAC
h -t 0.470652073 -s 8 -d -1 -p message -e 90 -c 2 -a 0 -i 9 -k MAC
r -t 0.471372572 -s 28 -d -1 -p message -e 32 -c 2 -a 0 -i 9 -k MAC
r -t 0.471372688 -s 7 -d -1 -p message -e 32 -c 2 -a 0 -i 9 -k MAC
r -t 0.471397572 -s 28 -d -1 -p message -e 32 -c 2 -a 0 -i 9 -k RTR
r -t 0.471397688 -s 7 -d -1 -p message -e 32 -c 2 -a 0 -i 9 -k RTR
+ -t 0.521504883 -s 22 -d -1 -p message -e 32 -c 2 -a 0 -i 10 -k RTR 
- -t 0.521504883 -s 22 -d -1 -p message -e 32 -c 2 -a 0 -i 10 -k RTR
h -t 0.521504883 -s 22 -d -1 -p message -e 32 -c 2 -a 0 -i 10 -k RTR
+ -t 0.521659883 -s 22 -d -1 -p message -e 90 -c 2 -a 0 -i 10 -k MAC 
- -t 0.521659883 -s 22 -d -1 -p message -e 90 -c 2 -a 0 -i 10 -k MAC
h -t 0.521659883 -s 22 -d -1 -p message -e 90 -c 2 -a 0 -i 10 -k MAC
r -t 0.522380314 -s 14 -d -1 -p message -e 32 -c 2 -a 0 -i 10 -k MAC
r -t 0.522380372 -s 1 -d -1 -p message -e 32 -c 2 -a 0 -i 10 -k MAC
r -t 0.522380475 -s 2 -d -1 -p message -e 32 -c 2 -a 0 -i 10 -k MAC
r -t 0.522380571 -s 4 -d -1 -p message -e 32 -c 2 -a 0 -i 10 -k MAC
r -t 0.522380777 -s 24 -d -1 -p message -e 32 -c 2 -a 0 -i 10 -k MAC
r -t 0.522380898 -s 21 -d -1 -p message -e 32 -c 2 -a 0 -i 10 -k MAC
r -t 0.522381121 -s 9 -d -1 -p message -e 32 -c 2 -a 0 -i 10 -k MAC
r -t 0.522405314 -s 14 -d -1 -p message -e 32 -c 2 -a 0 -i 10 -k RTR
r -t 0.522405372 -s 1 -d -1 -p message -e 32 -c 2 -a 0 -i 10 -k RTR
r -t 0.522405475 -s 2 -d -1 -p message -e 32 -c 2 -a 0 -i 10 -k RTR
r -t 0.522405571 -s 4 -d -1 -p message -e 32 -c 2 -a 0 -i 10 -k RTR
r -t 0.522405777 -s 24 -d -1 -p message -e 32 -c 2 -a 0 -i 10 -k RTR
r -t 0.522405898 -s 21 -d -1 -p message -e 32 -c 2 -a 0 -i 10 -k RTR
r -t 0.522406121 -s 9 -d -1 -p message -e 32 -c 2 -a 0 -i 10 -k RTR
+ -t 0.556838879 -s 28 -d -1 -p cbr -e 512 -c 2 -a 0 -i 11 -k AGT 
- -t 0.556838879 -s 28 -d -1 -p cbr -e 512 -c 2 -a 0 -i 11 -k AGT
h -t 0.556838879 -s 28 -d -1 -p cbr -e 512 -c 2 -a 0 -i 11 -k AGT
+ -t 0.627186592 -s 10 -d -1 -p message -e 32 -c 2 -a 0 -i 12 -k RTR 
- -t 0.627186592 -s 10 -d -1 -p message -e 32 -c 2 -a 0 -i 12 -k RTR
h -t 0.627186592 -s 10 -d -1 -p message -e 32 -c 2 -a 0 -i 12 -k RTR
+ -t 0.627321592 -s 10 -d -1 -p message -e 90 -c 2 -a 0 -i 12 -k MAC 
- -t 0.627321592 -s 10 -d -1 -p message -e 90 -c 2 -a 0 -i 12 -k MAC
h -t 0.627321592 -s 10 -d -1 -p message -e 90 -c 2 -a 0 -i 12 -k MAC
r -t 0.628042301 -s 15 -d -1 -p message -e 32 -c 2 -a 0 -i 12 -k MAC
r -t 0.628042404 -s 23 -d -1 -p message -e 32 -c 2 -a 0 -i 12 -k MAC
r -t 0.628042492 -s 18 -d -1 -p message -e 32 -c 2 -a 0 -i 12 -k MAC
r -t 0.628042693 -s 19 -d -1 -p message -e 32 -c 2 -a 0 -i 12 -k MAC
r -t 0.628042722 -s 16 -d -1 -p message -e 32 -c 2 -a 0 -i 12 -k MAC
r -t 0.628042819 -s 20 -d -1 -p message -e 32 -c 2 -a 0 -i 12 -k MAC
r -t 0.628067301 -s 15 -d -1 -p message -e 32 -c 2 -a 0 -i 12 -k RTR
r -t 0.628067404 -s 23 -d -1 -p message -e 32 -c 2 -a 0 -i 12 -k RTR
r -t 0.628067492 -s 18 -d -1 -p message -e 32 -c 2 -a 0 -i 12 -k RTR
r -t 0.628067693 -s 19 -d -1 -p message -e 32 -c 2 -a 0 -i 12 -k RTR
r -t 0.628067722 -s 16 -d -1 -p message -e 32 -c 2 -a 0 -i 12 -k RTR
r -t 0.628067819 -s 20 -d -1 -p message -e 32 -c 2 -a 0 -i 12 -k RTR
+ -t 0.634670006 -s 6 -d -1 -p message -e 32 -c 2 -a 0 -i 13 -k RTR 
- -t 0.634670006 -s 6 -d -1 -p message -e 32 -c 2 -a 0 -i 13 -k RTR
h -t 0.634670006 -s 6 -d -1 -p message -e 32 -c 2 -a 0 -i 13 -k RTR
+ -t 0.634865006 -s 6 -d -1 -p message -e 90 -c 2 -a 0 -i 13 -k MAC 
- -t 0.634865006 -s 6 -d -1 -p message -e 90 -c 2 -a 0 -i 13 -k MAC
h -t 0.634865006 -s 6 -d -1 -p message -e 90 -c 2 -a 0 -i 13 -k MAC
r -t 0.635585781 -s 16 -d -1 -p message -e 32 -c 2 -a 0 -i 13 -k MAC
r -t 0.635585994 -s 20 -d -1 -p message -e 32 -c 2 -a 0 -i 13 -k MAC
r -t 0.635586016 -s 12 -d -1 -p message -e 32 -c 2 -a 0 -i 13 -k MAC
r -t 0.635610781 -s 16 -d -1 -p message -e 32 -c 2 -a 0 -i 13 -k RTR
r -t 0.635610994 -s 20 -d -1 -p message -e 32 -c 2 -a 0 -i 13 -k RTR
r -t 0.635611016 -s 12 -d -1 -p message -e 32 -c 2 -a 0 -i 13 -k RTR
+ -t 0.705637875 -s 21 -d -1 -p message -e 32 -c 2 -a 0 -i 14 -k RTR 
- -t 0.705637875 -s 21 -d -1 -p message -e 32 -c 2 -a 0 -i 14 -k RTR
h -t 0.705637875 -s 21 -d -1 -p message -e 32 -c 2 -a 0 -i 14 -k RTR
+ -t 0.706012875 -s 21 -d -1 -p message -e 90 -c 2 -a 0 -i 14 -k MAC 
- -t 0.706012875 -s 21 -d -1 -p message -e 90 -c 2 -a 0 -i 14 -k MAC
h -t 0.706012875 -s 21 -d -1 -p message -e 90 -c 2 -a 0 -i 14 -k MAC
r -t 0.706733384 -s 2 -d -1 -p message -e 32 -c 2 -a 0 -i 14 -k MAC
r -t 0.706733472 -s 0 -d -1 -p message -e 32 -c 2 -a 0 -i 14 -k MAC
r -t 0.706733500 -s 29 -d -1 -p message -e 32 -c 2 -a 0 -i 14 -k MAC
r -t 0.706733571 -s 24 -d -1 -p message -e 32 -c 2 -a 0 -i 14 -k MAC
r -t 0.706733889 -s 22 -d -1 -p message -e 32 -c 2 -a 0 -i 14 -k MAC
r -t 0.706733941 -s 1 -d -1 -p message -e 32 -c 2 -a 0 -i 14 -k MAC
r -t 0.706758384 -s 2 -d -1 -p message -e 32 -c 2 -a 0 -i 14 -k RTR
r -t 0.706758472 -s 0 -d -1 -p message -e 32 -c 2 -a 0 -i 14 -k RTR
r -t 0.706758500 -s 29 -d -1 -p message -e 32 -c 2 -a 0 -i 14 -k RTR
r -t 0.706758571 -s 24 -d -1 -p message -e 32 -c 2 -a 0 -i 14 -k RTR
r -t 0.706758889 -s 22 -d -1 -p message -e 32 -c 2 -a 0 -i 14 -k RTR
r -t 0.706758941 -s 1 -d -1 -p message -e 32 -c 2 -a 0 -i 14 -k RTR
+ -t 0.821435127 -s 23 -d -1 -p message -e 32 -c 2 -a 0 -i 15 -k RTR 
- -t 0.821435127 -s 23 -d -1 -p message -e 32 -c 2 -a 0 -i 15 -k RTR
h -t 0.821435127 -s 23 -d -1 -p message -e 32 -c 2 -a 0 -i 15 -k RTR
+ -t 0.821550127 -s 23 -d -1 -p message -e 90 -c 2 -a 0 -i 15 -k MAC 
- -t 0.821550127 -s 23 -d -1 -p message -e 90 -c 2 -a 0 -i 15 -k MAC
h -t 0.821550127 -s 23 -d -1 -p message -e 90 -c 2 -a 0 -i 15 -k MAC
r -t 0.822270224 -s 18 -d -1 -p message -e 32 -c 2 -a 0 -i 15 -k MAC
r -t 0.822270939 -s 10 -d -1 -p message -e 32 -c 2 -a 0 -i 15 -k MAC
r -t 0.822295224 -s 18 -d -1 -p message -e 32 -c 2 -a 0 -i 15 -k RTR
r -t 0.822295939 -s 10 -d -1 -p message -e 32 -c 2 -a 0 -i 15 -k RTR
+ -t 0.848147771 -s 17 -d -1 -p message -e 32 -c 2 -a 0 -i 16 -k RTR 
- -t 0.848147771 -s 17 -d -1 -p message -e 32 -c 2 -a 0 -i 16 -k RTR
h -t 0.848147771 -s 17 -d -1 -p message -e 32 -c 2 -a 0 -i 16 -k RTR
+ -t 0.848382771 -s 17 -d -1 -p message -e 90 -c 2 -a 0 -i 16 -k MAC 
- -t 0.848382771 -s 17 -d -1 -p message -e 90 -c 2 -a 0 -i 16 -k MAC
h -t 0.848382771 -s 17 -d -1 -p message -e 90 -c 2 -a 0 -i 16 -k MAC
r -t 0.849103269 -s 13 -d -1 -p message -e 32 -c 2 -a 0 -i 16 -k MAC
r -t 0.849104027 -s 15 -d -1 -p message -e 32 -c 2 -a 0 -i 16 -k MAC
r -t 0.849128269 -s 13 -d -1 -p message -e 32 -c 2 -a 0 -i 16 -k RTR
r -t 0.849129027 -s 15 -d -1 -p message -e 32 -c 2 -a 0 -i 16 -k RTR
+ -t 0.882674688 -s 4 -d -1 -p message -e 32 -c 2 -a 0 -i 17 -k RTR 
- -t 0.882674688 -s 4 -d -1 -p message -e 32 -c 2 -a 0 -i 17 -k RTR
h -t 0.882674688 -s 4 -d -1 -p message -e 32 -c 2 -a 0 -i 17 -k RTR
+ -t 0.882909688 -s 4 -d -1 -p message -e 90 -c 2 -a 0 -i 17 -k MAC 
- -t 0.882909688 -s 4 -d -1 -p message -e 90 -c 2 -a 0 -i 17 -k MAC
h -t 0.882909688 -s 4 -d -1 -p message -e 90 -c 2 -a 0 -i 17 -k MAC
r -t 0.883630054 -s 1 -d -1 -p message -e 32 -c 2 -a 0 -i 17 -k MAC
r -t 0.883630375 -s 22 -d -1 -p message -e 32 -c 2 -a 0 -i 17 -k MAC
r -t 0.883630376 -s 14 -d -1 -p message -e 32 -c 2 -a 0 -i 17 -k MAC
r -t 0.883630611 -s 2 -d -1 -p message -e 32 -c 2 -a 0 -i 17 -k MAC
r -t 0.883630621 -s 24 -d -1 -p message -e 32 -c 2 -a 0 -i 17 -k MAC
r -t 0.883630691 -s 3 -d -1 -p message -e 32 -c 2 -a 0 -i 17 -k MAC
r -t 0.883630710 -s 25 -d -1 -p message -e 32 -c 2 -a 0 -i 17 -k MAC
r -t 0.883630880 -s 9 -d -1 -p message -e 32 -c 2 -a 0 -i 17 -k MAC
r -t 0.883655054 -s 1 -d -1 -p message -e 32 -c 2 -a 0 -i 17 -k RTR
r -t 0.883655375 -s 22 -d -1 -p message -e 32 -c 2 -a 0 -i 17 -k RTR
r -t 0.883655376 -s 14 -d -1 -p message -e 32 -c 2 -a 0 -i 17 -k RTR
r -t 0.883655611 -s 2 -d -1 -p message -e 32 -c 2 -a 0 -i 17 -k RTR
r -t 0.883655621 -s 24 -d -1 -p message -e 32 -c 2 -a 0 -i 17 -k RTR
r -t 0.883655691 -s 3 -d -1 -p message -e 32 -c 2 -a 0 -i 17 -k RTR
r -t 0.883655710 -s 25 -d -1 -p message -e 32 -c 2 -a 0 -i 17 -k RTR
r -t 0.883655880 -s 9 -d -1 -p message -e 32 -c 2 -a 0 -i 17 -k RTR
+ -t 0.935449221 -s 25 -d -1 -p message -e 32 -c 2 -a 0 -i 18 -k RTR 
- -t 0.935449221 -s 25 -d -1 -p message -e 32 -c 2 -a 0 -i 18 -k RTR
h -t 0.935449221 -s 25 -d -1 -p message -e 32 -c 2 -a 0 -i 18 -k RTR
+ -t 0.935884221 -s 25 -d -1 -p message -e 90 -c 2 -a 0 -i 18 -k MAC 
- -t 0.935884221 -s 25 -d -1 -p message -e 90 -c 2 -a 0 -i 18 -k MAC
h -t 0.935884221 -s 25 -d -1 -p message -e 90 -c 2 -a 0 -i 18 -k MAC
r -t 0.936604918 -s 9 -d -1 -p message -e 32 -c 2 -a 0 -i 18 -k MAC
r -t 0.936604920 -s 3 -d -1 -p message -e 32 -c 2 -a 0 -i 18 -k MAC
r -t 0.936605243 -s 4 -d -1 -p message -e 32 -c 2 -a 0 -i 18 -k MAC
r -t 0.936605310 -s 14 -d -1 -p message -e 32 -c 2 -a 0 -i 18 -k MAC
r -t 0.936605365 -s 27 -d -1 -p message -e 32 -c 2 -a 0 -i 18 -k MAC
r -t 0.936605365 -s 26 -d -1 -p message -e 32 -c 2 -a 0 -i 18 -k MAC
r -t 0.936605530 -s 7 -d -1 -p message -e 32 -c 2 -a 0 -i 18 -k MAC
r -t 0.936629918 -s 9 -d -1 -p message -e 32 -c 2 -a 0 -i 18 -k RTR
r -t 0.936629920 -s 3 -d -1 -p message -e 32 -c 2 -a 0 -i 18 -k RTR
r -t 0.936630243 -s 4 -d -1 -p message -e 32 -c 2 -a 0 -i 18 -k RTR
r -t 0.936630310 -s 14 -d -1 -p message -e 32 -c 2 -a 0 -i 18 -k RTR
r -t 0.936630365 -s 27 -d -1 -p message -e 32 -c 2 -a 0 -i 18 -k RTR
r -t 0.936630365 -s 26 -d -1 -p message -e 32 -c 2 -a 0 -i 18 -k RTR
r -t 0.936630530 -s 7 -d -1 -p message -e 32 -c 2 -a 0 -i 18 -k RTR
+ -t 1.039009780 -s 24 -d -1 -p message -e 32 -c 2 -a 0 -i 19 -k RTR 
- -t 1.039009780 -s 24 -d -1 -p message -e 32 -c 2 -a 0 -i 19 -k RTR
h -t 1.039009780 -s 24 -d -1 -p message -e 32 -c 2 -a 0 -i 19 -k RTR
+ -t 1.039404780 -s 24 -d -1 -p message -e 90 -c 2 -a 0 -i 19 -k MAC 
- -t 1.039404780 -s 24 -d -1 -p message -e 90 -c 2 -a 0 -i 19 -k MAC
h -t 1.039404780 -s 24 -d -1 -p message -e 90 -c 2 -a 0 -i 19 -k MAC
r -t 1.040125182 -s 2 -d -1 -p message -e 32 -c 2 -a 0 -i 19 -k MAC
r -t 1.040125389 -s 1 -d -1 -p message -e 32 -c 2 -a 0 -i 19 -k MAC
r -t 1.040125476 -s 21 -d -1 -p message -e 32 -c 2 -a 0 -i 19 -k MAC
r -t 1.040125673 -s 22 -d -1 -p message -e 32 -c 2 -a 0 -i 19 -k MAC
r -t 1.040125713 -s 4 -d -1 -p message -e 32 -c 2 -a 0 -i 19 -k MAC
r -t 1.040125762 -s 0 -d -1 -p message -e 32 -c 2 -a 0 -i 19 -k MAC
r -t 1.040126044 -s 14 -d -1 -p message -e 32 -c 2 -a 0 -i 19 -k MAC
r -t 1.040126098 -s 29 -d -1 -p message -e 32 -c 2 -a 0 -i 19 -k MAC
r -t 1.040150182 -s 2 -d -1 -p message -e 32 -c 2 -a 0 -i 19 -k RTR
r -t 1.040150389 -s 1 -d -1 -p message -e 32 -c 2 -a 0 -i 19 -k RTR
r -t 1.040150476 -s 21 -d -1 -p message -e 32 -c 2 -a 0 -i 19 -k RTR
r -t 1.040150673 -s 22 -d -1 -p message -e 32 -c 2 -a 0 -i 19 -k RTR
r -t 1.040150713 -s 4 -d -1 -p message -e 32 -c 2 -a 0 -i 19 -k RTR
r -t 1.040150762 -s 0 -d -1 -p message -e 32 -c 2 -a 0 -i 19 -k RTR
r -t 1.040151044 -s 14 -d -1 -p message -e 32 -c 2 -a 0 -i 19 -k RTR
r -t 1.040151098 -s 29 -d -1 -p message -e 32 -c 2 -a 0 -i 19 -k RTR
+ -t 1.119657716 -s 1 -d -1 -p message -e 32 -c 2 -a 0 -i 20 -k RTR 
- -t 1.119657716 -s 1 -d -1 -p message -e 32 -c 2 -a 0 -i 20 -k RTR
h -t 1.119657716 -s 1 -d -1 -p message -e 32 -c 2 -a 0 -i 20 -k RTR
+ -t 1.119832716 -s 1 -d -1 -p message -e 90 -c 2 -a 0 -i 20 -k MAC 
- -t 1.119832716 -s 1 -d -1 -p message -e 90 -c 2 -a 0 -i 20 -k MAC
h -t 1.119832716 -s 1 -d -1 -p message -e 90 -c 2 -a 0 -i 20 -k MAC
r -t 1.120553082 -s 4 -d -1 -p message -e 32 -c 2 -a 0 -i 20 -k MAC
r -t 1.120553204 -s 22 -d -1 -p message -e 32 -c 2 -a 0 -i 20 -k MAC
r -t 1.120553274 -s 2 -d -1 -p message -e 32 -c 2 -a 0 -i 20 -k MAC
r -t 1.120553325 -s 24 -d -1 -p message -e 32 -c 2 -a 0 -i 20 -k MAC
r -t 1.120553434 -s 14 -d -1 -p message -e 32 -c 2 -a 0 -i 20 -k MAC
r -t 1.120553783 -s 21 -d -1 -p message -e 32 -c 2 -a 0 -i 20 -k MAC
r -t 1.120578082 -s 4 -d -1 -p message -e 32 -c 2 -a 0 -i 20 -k RTR
r -t 1.120578204 -s 22 -d -1 -p message -e 32 -c 2 -a 0 -i 20 -k RTR
r -t 1.120578274 -s 2 -d -1 -p message -e 32 -c 2 -a 0 -i 20 -k RTR
r -t 1.120578325 -s 24 -d -1 -p message -e 32 -c 2 -a 0 -i 20 -k RTR
r -t 1.120578434 -s 14 -d -1 -p message -e 32 -c 2 -a 0 -i 20 -k RTR
r -t 1.120578783 -s 21 -d -1 -p message -e 32 -c 2 -a 0 -i 20 -k RTR
+ -t 1.277890258 -s 9 -d -1 -p message -e 32 -c 2 -a 0 -i 21 -k RTR 
- -t 1.277890258 -s 9 -d -1 -p message -e 32 -c 2 -a 0 -i 21 -k RTR
h -t 1.277890258 -s 9 -d -1 -p message -e 32 -c 2 -a 0 -i 21 -k RTR
+ -t 1.278565258 -s 9 -d -1 -p message -e 90 -c 2 -a 0 -i 21 -k MAC 
- -t 1.278565258 -s 9 -d -1 -p message -e 90 -c 2 -a 0 -i 21 -k MAC
h -t 1.278565258 -s 9 -d -1 -p message -e 90 -c 2 -a 0 -i 21 -k MAC
r -t 1.279285955 -s 25 -d -1 -p message -e 32 -c 2 -a 0 -i 21 -k MAC
r -t 1.279285993 -s 27 -d -1 -p message -e 32 -c 2 -a 0 -i 21 -k MAC
r -t 1.279285993 -s 26 -d -1 -p message -e 32 -c 2 -a 0 -i 21 -k MAC
r -t 1.279286066 -s 14 -d -1 -p message -e 32 -c 2 -a 0 -i 21 -k MAC
r -t 1.279286451 -s 4 -d -1 -p message -e 32 -c 2 -a 0 -i 21 -k MAC
r -t 1.279286496 -s 22 -d -1 -p message -e 32 -c 2 -a 0 -i 21 -k MAC
r -t 1.279310955 -s 25 -d -1 -p message -e 32 -c 2 -a 0 -i 21 -k RTR
r -t 1.279310993 -s 27 -d -1 -p message -e 32 -c 2 -a 0 -i 21 -k RTR
r -t 1.279310993 -s 26 -d -1 -p message -e 32 -c 2 -a 0 -i 21 -k RTR
r -t 1.279311066 -s 14 -d -1 -p message -e 32 -c 2 -a 0 -i 21 -k RTR
r -t 1.279311451 -s 4 -d -1 -p message -e 32 -c 2 -a 0 -i 21 -k RTR
r -t 1.279311496 -s 22 -d -1 -p message -e 32 -c 2 -a 0 -i 21 -k RTR
+ -t 1.281327089 -s 14 -d -1 -p message -e 32 -c 2 -a 0 -i 22 -k RTR 
- -t 1.281327089 -s 14 -d -1 -p message -e 32 -c 2 -a 0 -i 22 -k RTR
h -t 1.281327089 -s 14 -d -1 -p message -e 32 -c 2 -a 0 -i 22 -k RTR
+ -t 1.281462089 -s 14 -d -1 -p message -e 90 -c 2 -a 0 -i 22 -k MAC 
- -t 1.281462089 -s 14 -d -1 -p message -e 90 -c 2 -a 0 -i 22 -k MAC
h -t 1.281462089 -s 14 -d -1 -p message -e 90 -c 2 -a 0 -i 22 -k MAC
r -t 1.282182520 -s 22 -d -1 -p message -e 32 -c 2 -a 0 -i 22 -k MAC
r -t 1.282182778 -s 4 -d -1 -p message -e 32 -c 2 -a 0 -i 22 -k MAC
r -t 1.282182808 -s 1 -d -1 -p message -e 32 -c 2 -a 0 -i 22 -k MAC
r -t 1.282182897 -s 9 -d -1 -p message -e 32 -c 2 -a 0 -i 22 -k MAC
r -t 1.282183103 -s 2 -d -1 -p message -e 32 -c 2 -a 0 -i 22 -k MAC
r -t 1.282183179 -s 25 -d -1 -p message -e 32 -c 2 -a 0 -i 22 -k MAC
r -t 1.282183353 -s 24 -d -1 -p message -e 32 -c 2 -a 0 -i 22 -k MAC
r -t 1.282207520 -s 22 -d -1 -p message -e 32 -c 2 -a 0 -i 22 -k RTR
r -t 1.282207778 -s 4 -d -1 -p message -e 32 -c 2 -a 0 -i 22 -k RTR
r -t 1.282207808 -s 1 -d -1 -p message -e 32 -c 2 -a 0 -i 22 -k RTR
r -t 1.282207897 -s 9 -d -1 -p message -e 32 -c 2 -a 0 -i 22 -k RTR
r -t 1.282208103 -s 2 -d -1 -p message -e 32 -c 2 -a 0 -i 22 -k RTR
r -t 1.282208179 -s 25 -d -1 -p message -e 32 -c 2 -a 0 -i 22 -k RTR
r -t 1.282208353 -s 24 -d -1 -p message -e 32 -c 2 -a 0 -i 22 -k RTR
+ -t 1.388842989 -s 26 -d -1 -p message -e 32 -c 2 -a 0 -i 23 -k RTR 
- -t 1.388842989 -s 26 -d -1 -p message -e 32 -c 2 -a 0 -i 23 -k RTR
h -t 1.388842989 -s 26 -d -1 -p message -e 32 -c 2 -a 0 -i 23 -k RTR
+ -t 1.389297989 -s 26 -d -1 -p message -e 90 -c 2 -a 0 -i 23 -k MAC 
- -t 1.389297989 -s 26 -d -1 -p message -e 90 -c 2 -a 0 -i 23 -k MAC
h -t 1.389297989 -s 26 -d -1 -p message -e 90 -c 2 -a 0 -i 23 -k MAC
r -t 1.390017989 -s 27 -d -1 -p message -e 32 -c 2 -a 0 -i 23 -k MAC
r -t 1.390018724 -s 9 -d -1 -p message -e 32 -c 2 -a 0 -i 23 -k MAC
r -t 1.390019133 -s 25 -d -1 -p message -e 32 -c 2 -a 0 -i 23 -k MAC
r -t 1.390042989 -s 27 -d -1 -p message -e 32 -c 2 -a 0 -i 23 -k RTR
r -t 1.390043724 -s 9 -d -1 -p message -e 32 -c 2 -a 0 -i 23 -k RTR
r -t 1.390044133 -s 25 -d -1 -p message -e 32 -c 2 -a 0 -i 23 -k RTR
+ -t 1.607278916 -s 5 -d -1 -p message -e 32 -c 2 -a 0 -i 24 -k RTR 
- -t 1.607278916 -s 5 -d -1 -p message -e 32 -c 2 -a 0 -i 24 -k RTR
h -t 1.607278916 -s 5 -d -1 -p message -e 32 -c 2 -a 0 -i 24 -k RTR
+ -t 1.607673916 -s 5 -d -1 -p message -e 90 -c 2 -a 0 -i 24 -k MAC 
- -t 1.607673916 -s 5 -d -1 -p message -e 90 -c 2 -a 0 -i 24 -k MAC
h -t 1.607673916 -s 5 -d -1 -p message -e 90 -c 2 -a 0 -i 24 -k MAC
r -t 1.608394142 -s 11 -d -1 -p message -e 32 -c 2 -a 0 -i 24 -k MAC
r -t 1.608394602 -s 19 -d -1 -p message -e 32 -c 2 -a 0 -i 24 -k MAC
r -t 1.608394640 -s 20 -d -1 -p message -e 32 -c 2 -a 0 -i 24 -k MAC